                               Psi4 1.2.1 release

  ==> Input File <==

--------------------------------------------------------------------------
set_num_threads(4)
set_memory('3000 MB')

set { scf_mem_safety_factor 0.7 }

set { reference rks }
set { basis 6-31G* }

molecule MOL {
    1 1
    noreorient
    nocom
    symmetry c1
    C   -0.000000  -0.000000  -0.177864
    C    0.036678   1.219374   0.524165
    C    0.031765   1.213120   1.915444
    C    0.000000   0.000000   2.610107
    C   -0.031765  -1.213120   1.915444
    C   -0.036678  -1.219375   0.524165
    C   -0.000000   0.000000  -1.644734
    H    0.018170   2.164705  -0.010854
    H    0.042402   2.152895   2.457886
    H    0.000000   0.000000   3.695756
    H   -0.042402  -2.152895   2.457886
    H   -0.018170  -2.164705  -0.010853
    N   -0.712590  -0.905950  -2.308461
    N    0.712590   0.905950  -2.308460
    H    0.673432   1.006470  -3.315997
    H    1.377190   1.485970  -1.813316
    H   -1.001126  -1.757983  -1.845783
    H   -1.045781  -0.758973  -3.254055
}

set optking { frozen_dihedral = (" 1 7 13 17 ") }

set optking { dynamic_level = 1
 geom_maxiter = 250
 print_trajectory_xyz_file = True }

energy, wfn = optimize('B3LYP-D3', return_wfn=True)

import os
os.chdir(os.environ['HTMD_PSI4_WORKDIR'])

oeprop(wfn, 'DIPOLE', 'QUADRUPOLE', 'MULLIKEN_CHARGES')

with open('psi4out.xyz', 'w') as f:
    f.write('18 ' )
    f.write('%.12f\n' % energy)
    f.write(MOL.save_string_xyz())
--------------------------------------------------------------------------

    Molecular point group: c1
  Charge       = 1
  Multiplicity = 1
  Basis Set: 6-31G*
    Blend: 6-31G*
  Basis Set: (6-31G* AUX)
    Blend: CC-PVDZ-JKFIT
  @DF-RKS Final Energy:  -381.46127256906692
    Total Energy =                       -381.4612725690669777
    Molecular point group: c1
  Basis Set: 6-31G*
    Blend: 6-31G*
  Basis Set: (6-31G* AUX)
    Blend: CC-PVDZ-JKFIT
  Basis Set: 6-31G*
    Blend: 6-31G*
  Basis Set: (6-31G* AUX)
    Blend: CC-PVDZ-JKFIT
  @DF-RKS Final Energy:  -381.46506802365496
    Total Energy =                       -381.4650680236549078
  Basis Set: 6-31G*
    Blend: 6-31G*
  Basis Set: (6-31G* AUX)
    Blend: CC-PVDZ-JKFIT
  Basis Set: 6-31G*
    Blend: 6-31G*
  @DF-RKS Final Energy:  -381.46627793281181
    Total Energy =                       -381.4662779328118063
  @DF-RKS Final Energy:  -381.46729726956789
    Total Energy =                       -381.4672972695679505
  @DF-RKS Final Energy:  -381.46736579353120
    Total Energy =                       -381.4673657935312008
  Basis Set: (6-31G* AUX)
    Blend: CC-PVDZ-JKFIT
  Basis Set: 6-31G*
    Blend: 6-31G*
  Basis Set: (6-31G* AUX)
    Blend: CC-PVDZ-JKFIT
  @DF-RKS Final Energy:  -381.46737204845851
    Total Energy =                       -381.4673720484585715
  Basis Set: 6-31G*
    Blend: 6-31G*
  Basis Set: (6-31G* AUX)
    Blend: CC-PVDZ-JKFIT
  Charge       = 1
  Multiplicity = 1
  Basis Set: 6-31G*
    Blend: 6-31G*
  Basis Set: (6-31G* AUX)
    Blend: CC-PVDZ-JKFIT

    Orbital Energies [Eh]
    ---------------------

    Doubly Occupied:

       1A    -14.570587     2A    -14.567845     3A    -10.499125
       4A    -10.374796     5A    -10.357734     6A    -10.356887
       7A    -10.342929     8A    -10.341167     9A    -10.340852
      10A     -1.185529    11A     -1.093579    12A     -1.015159
      13A     -0.927308    14A     -0.903085    15A     -0.846247
      16A     -0.786396    17A     -0.773354    18A     -0.742815
      19A     -0.733479    20A     -0.685690    21A     -0.669256
      22A     -0.626422    23A     -0.620577    24A     -0.588389
      25A     -0.579453    26A     -0.574931    27A     -0.518782
      28A     -0.506388    29A     -0.499066    30A     -0.474173
      31A     -0.411577    32A     -0.406256

  @DF-RKS Final Energy:  -381.46737270077062

   => Energetics <=

    Nuclear Repulsion Energy =            416.7984898292485809
    One-Electron Energy =               -1328.7455490556687892
    Two-Electron Energy =                 574.8955373233304726
    DFT Exchange-Correlation Energy =     -44.4039802576809279
    Empirical Dispersion Energy =          -0.0118705400000000
    VV10 Nonlocal Energy =                  0.0000000000000000
    Total Energy =                       -381.4673727007706248
    Molecular point group: c1
  Basis Set: 6-31G*
    Blend: 6-31G*
  Basis Set: (6-31G* AUX)
    Blend: CC-PVDZ-JKFIT

  -Total Gradient:
     Atom            X                  Y                   Z
    ------   -----------------  -----------------  -----------------
       1       -0.003562873811     0.003482108254     0.000045809720
       2        0.000017037608    -0.000029432207    -0.000015361997
       3       -0.000001258606    -0.000002198169     0.000000084148
       4       -0.000002880271    -0.000005342631     0.000001634449
       5        0.000000131304     0.000000721956     0.000008636125
       6        0.000000487198    -0.000005740373    -0.000004773952
       7        0.007531699900    -0.006661992924    -0.000862478075
       8       -0.000001176119     0.000002255641    -0.000000103021
       9       -0.000003397554     0.000002176330    -0.000007760004
      10        0.000001997438    -0.000001703703    -0.000002830217
      11        0.000001039280    -0.000002157065    -0.000003559154
      12        0.000006431608    -0.000004141632     0.000011172625
      13       -0.009684747275     0.007090206965     0.002993505924
      14        0.000002962910    -0.000020842846     0.000013975009
      15        0.000013658227    -0.000010450062     0.000004514310
      16        0.000006735599    -0.000023814869    -0.000011508482
      17        0.005676989673    -0.003809768195    -0.002180779614
      18       -0.000004770487    -0.000013366608    -0.000012902873

  **** Optimization is complete! (in 7 steps) ****
    Final optimized geometry and variables:
    Molecular point group: c1

    Geometry (in Angstrom), charge = 1, multiplicity = 1:

    C            0.006107296683    -0.007071818457    -0.175687230922
    C            0.045489772249     1.212280062455     0.524995930096
    C            0.039832849825     1.206829893758     1.916740061644
    C            0.011143266778    -0.004603047674     2.613467114089
    C           -0.018990920661    -1.218214928871     1.919921386618
    C           -0.026595609642    -1.224312291964     0.528755809477
    C           -0.006959483067    -0.004649933181    -1.645095616696
    H            0.023857655075     2.158232237890    -0.008600539825
    H            0.048274880379     2.147779436596     2.457211012036
    H            0.011412828745    -0.003265190129     3.699057370398
    H           -0.027915182380    -2.157836077286     2.462592692491
    H           -0.007971455962    -2.173997458391    -0.000073767517
    N           -0.816771096389    -0.833491543422    -2.306279065100
    N            0.693000397515     0.909484232991    -2.307947056316
    H            0.637846463804     1.025612828573    -3.313283223114
    H            1.333327846073     1.513767369288    -1.809920760923
    H           -1.180619619771    -1.649516530063    -1.829560215794
    H           -0.760754889257    -0.921544242113    -3.315817900640

  Dipole Moment: [D]
     X:     0.3967      Y:    -0.1670      Z:    -5.7229     Total:     5.7391

  Mulliken Charges: (a.u.)
   Center  Symbol    Alpha    Beta     Spin     Total
       1     C     2.94756  2.94756  0.00000  0.10487
       2     C     3.08178  3.08178  0.00000 -0.16356
       3     C     3.06225  3.06225  0.00000 -0.12451
       4     C     3.05165  3.05165  0.00000 -0.10330
       5     C     3.06232  3.06232  0.00000 -0.12464
       6     C     3.08496  3.08496  0.00000 -0.16991
       7     C     2.73463  2.73463  0.00000  0.53073
       8     H     0.41446  0.41446  0.00000  0.17108
       9     H     0.40526  0.40526  0.00000  0.18948
      10     H     0.40383  0.40383  0.00000  0.19234
      11     H     0.40538  0.40538  0.00000  0.18924
      12     H     0.41731  0.41731  0.00000  0.16538
      13     N     3.85329  3.85329  0.00000 -0.70657
      14     N     3.86196  3.86196  0.00000 -0.72391
      15     H     0.30495  0.30495  0.00000  0.39011
      16     H     0.29902  0.29902  0.00000  0.40195
      17     H     0.30096  0.30096  0.00000  0.39808
      18     H     0.30843  0.30843  0.00000  0.38314

   Total alpha = 32.00000, Total beta = 32.00000, Total charge =  1.00000

*** Psi4 exiting successfully. Buy a developer a beer!
