                               Psi4 1.2.1 release

  ==> Input File <==

--------------------------------------------------------------------------
set_num_threads(4)
set_memory('3000 MB')

set { scf_mem_safety_factor 0.7 }

set { reference rks }
set { basis 6-31G* }

molecule MOL {
    1 1
    noreorient
    nocom
    symmetry c1
    C   -0.000000  -0.000000  -0.177864
    C    0.036678   1.219374   0.524165
    C    0.031765   1.213120   1.915444
    C    0.000000   0.000000   2.610107
    C   -0.031765  -1.213120   1.915444
    C   -0.036678  -1.219375   0.524165
    C   -0.000000   0.000000  -1.644734
    H    0.018170   2.164705  -0.010854
    H    0.042402   2.152895   2.457886
    H    0.000000   0.000000   3.695756
    H   -0.042402  -2.152895   2.457886
    H   -0.018170  -2.164705  -0.010853
    N   -0.712590  -0.905950  -2.308461
    N    0.712590   0.905950  -2.308460
    H    0.673432   1.006470  -3.315997
    H    1.377190   1.485970  -1.813316
    H   -1.708506  -0.775023  -2.428011
    H   -0.294214  -1.706532  -2.767586
}

set optking { frozen_dihedral = (" 1 7 13 17 ") }

set optking { dynamic_level = 1
 geom_maxiter = 250
 print_trajectory_xyz_file = True }

energy, wfn = optimize('B3LYP-D3', return_wfn=True)

import os
os.chdir(os.environ['HTMD_PSI4_WORKDIR'])

oeprop(wfn, 'DIPOLE', 'QUADRUPOLE', 'MULLIKEN_CHARGES')

with open('psi4out.xyz', 'w') as f:
    f.write('18 ' )
    f.write('%.12f\n' % energy)
    f.write(MOL.save_string_xyz())
--------------------------------------------------------------------------

    Molecular point group: c1
  Charge       = 1
  Multiplicity = 1
  Basis Set: 6-31G*
    Blend: 6-31G*
  Basis Set: (6-31G* AUX)
    Blend: CC-PVDZ-JKFIT
  @DF-RKS Final Energy:  -381.43158083290984
    Total Energy =                       -381.4315808329098445
    Molecular point group: c1
  Basis Set: 6-31G*
    Blend: 6-31G*
  Basis Set: (6-31G* AUX)
    Blend: CC-PVDZ-JKFIT
  Basis Set: 6-31G*
    Blend: 6-31G*
  Basis Set: (6-31G* AUX)
    Blend: CC-PVDZ-JKFIT
  @DF-RKS Final Energy:  -381.44037046995692
    Total Energy =                       -381.4403704699569744
  Basis Set: 6-31G*
    Blend: 6-31G*
  Basis Set: (6-31G* AUX)
    Blend: CC-PVDZ-JKFIT
  Basis Set: 6-31G*
    Blend: 6-31G*
  @DF-RKS Final Energy:  -381.44441643188298
    Total Energy =                       -381.4444164318829849
  @DF-RKS Final Energy:  -381.44914014502922
    Total Energy =                       -381.4491401450292187
  @DF-RKS Final Energy:  -381.45256406915797
    Total Energy =                       -381.4525640691580293
  @DF-RKS Final Energy:  -381.45286602455002
    Total Energy =                       -381.4528660245500760
  @DF-RKS Final Energy:  -381.45299756752968
    Total Energy =                       -381.4529975675296782
  Basis Set: (6-31G* AUX)
    Blend: CC-PVDZ-JKFIT
  Basis Set: 6-31G*
    Blend: 6-31G*
  Basis Set: (6-31G* AUX)
    Blend: CC-PVDZ-JKFIT
  @DF-RKS Final Energy:  -381.45300586680753
    Total Energy =                       -381.4530058668075299
  Basis Set: 6-31G*
    Blend: 6-31G*
  Basis Set: (6-31G* AUX)
    Blend: CC-PVDZ-JKFIT
  Charge       = 1
  Multiplicity = 1
  Basis Set: 6-31G*
    Blend: 6-31G*
  Basis Set: (6-31G* AUX)
    Blend: CC-PVDZ-JKFIT

    Orbital Energies [Eh]
    ---------------------

    Doubly Occupied:

       1A    -14.579768     2A    -14.548790     3A    -10.496636
       4A    -10.373015     5A    -10.360467     6A    -10.356005
       7A    -10.349305     8A    -10.343586     9A    -10.341113
      10A     -1.180837    11A     -1.084473    12A     -1.016071
      13A     -0.929620    14A     -0.904201    15A     -0.842316
      16A     -0.776826    17A     -0.771774    18A     -0.736636
      19A     -0.722437    20A     -0.694589    21A     -0.667914
      22A     -0.626904    23A     -0.605433    24A     -0.581482
      25A     -0.580619    26A     -0.563175    27A     -0.517278
      28A     -0.508132    29A     -0.499173    30A     -0.477019
      31A     -0.415664    32A     -0.407737

  @DF-RKS Final Energy:  -381.45300629625018

   => Energetics <=

    Nuclear Repulsion Energy =            416.2349356592466165
    One-Electron Energy =               -1327.7192322069240618
    Two-Electron Energy =                 574.4357205253865004
    DFT Exchange-Correlation Energy =     -44.3927647939592092
    Empirical Dispersion Energy =          -0.0116654800000000
    VV10 Nonlocal Energy =                  0.0000000000000000
    Total Energy =                       -381.4530062962501233
    Molecular point group: c1
  Basis Set: 6-31G*
    Blend: 6-31G*
  Basis Set: (6-31G* AUX)
    Blend: CC-PVDZ-JKFIT

  -Total Gradient:
     Atom            X                  Y                   Z
    ------   -----------------  -----------------  -----------------
       1        0.010213525671    -0.004805998492     0.000063280988
       2        0.000022816116     0.000000487165    -0.000018244571
       3        0.000000825789    -0.000008032125     0.000022449462
       4       -0.000016390368     0.000012585353     0.000002378050
       5       -0.000023092064     0.000013174204    -0.000015563014
       6        0.000056402389    -0.000001047242     0.000006238547
       7       -0.015189950157     0.009706451725    -0.004535727217
       8        0.000009294591    -0.000002339330    -0.000004779473
       9       -0.000003555605    -0.000002771184    -0.000005487489
      10        0.000007584278    -0.000002395842    -0.000005014157
      11        0.000001869549    -0.000002359157    -0.000007067250
      12       -0.000006767494     0.000009038100     0.000006438670
      13        0.004321106447    -0.012817124972     0.018074562740
      14       -0.000125833038     0.000034201813     0.000004417403
      15        0.000001700644     0.000015047079    -0.000000003750
      16       -0.000009144337    -0.000000755854     0.000001035468
      17        0.000756986729     0.007846639786    -0.013654012011
      18       -0.000015719638    -0.000003154682     0.000045849214

  **** Optimization is complete! (in 9 steps) ****
    Final optimized geometry and variables:
    Molecular point group: c1

    Geometry (in Angstrom), charge = 1, multiplicity = 1:

    C           -0.038519989078     0.009274955744    -0.157147659592
    C            0.082190368277     1.229910944957     0.546110498560
    C            0.116969508391     1.227321704811     1.933002999811
    C            0.022105818414     0.015895868870     2.631141683981
    C           -0.115715316830    -1.193998064109     1.943120553476
    C           -0.153645068317    -1.204981630946     0.553809215871
    C           -0.042358691666    -0.016964175877    -1.607738585492
    H            0.098285146360     2.176591763293     0.012356687201
    H            0.200513756160     2.163720981965     2.474764059297
    H            0.050720122958     0.018241268513     3.716616129725
    H           -0.184562442352    -2.127963924798     2.491199849100
    H           -0.228902306940    -2.139894776662     0.010058422131
    N           -0.548659644435    -1.113671902309    -2.263467392233
    N            0.646239951554     0.884999696278    -2.295204884424
    H            0.606959773426     0.937837272080    -3.307193797691
    H            1.263764551146     1.538476537419    -1.826344356026
    H           -1.563911977747    -1.156961325855    -2.340812459700
    H           -0.163571559322    -1.236951193373    -3.199553963996

  Dipole Moment: [D]
     X:     0.0821      Y:     0.9988      Z:    -5.5638     Total:     5.6534

  Mulliken Charges: (a.u.)
   Center  Symbol    Alpha    Beta     Spin     Total
       1     C     2.94812  2.94812  0.00000  0.10375
       2     C     3.08464  3.08464  0.00000 -0.16928
       3     C     3.06271  3.06271  0.00000 -0.12542
       4     C     3.04925  3.04925  0.00000 -0.09851
       5     C     3.06255  3.06255  0.00000 -0.12510
       6     C     3.06992  3.06992  0.00000 -0.13984
       7     C     2.76414  2.76414  0.00000  0.47172
       8     H     0.41575  0.41575  0.00000  0.16850
       9     H     0.40468  0.40468  0.00000  0.19064
      10     H     0.40215  0.40215  0.00000  0.19570
      11     H     0.40408  0.40408  0.00000  0.19185
      12     H     0.40207  0.40207  0.00000  0.19586
      13     N     3.85900  3.85900  0.00000 -0.71800
      14     N     3.84589  3.84589  0.00000 -0.69178
      15     H     0.30444  0.30444  0.00000  0.39112
      16     H     0.29941  0.29941  0.00000  0.40117
      17     H     0.30330  0.30330  0.00000  0.39340
      18     H     0.31790  0.31790  0.00000  0.36420

   Total alpha = 32.00000, Total beta = 32.00000, Total charge =  1.00000

*** Psi4 exiting successfully. Buy a developer a beer!
