                               Psi4 1.2.1 release

  ==> Input File <==

--------------------------------------------------------------------------
set_num_threads(1)
set_memory('5348 MB')

set { scf_mem_safety_factor 0.7 }

set { reference rks }
set { basis cc-pVDZ }

molecule MOL {
    0 1
    noreorient
    nocom
    symmetry c1
    O    1.141000   0.017000   0.083000
    C    2.558000   0.086000  -0.005000
    C    3.192000  -0.789000   1.067000
    O    4.536071  -1.094898   0.715903
    H    0.789000   0.590000  -0.620000
    H    2.874000   1.128000   0.115000
    H    2.871000  -0.243000  -1.001000
    H    2.629964  -1.721193   1.181322
    H    3.183526  -0.274479   2.034509
    H    4.890266  -1.652326   1.430540
}

set optking { frozen_dihedral = (" 1 2 3 4 ") }

energy, wfn = energy('B3LYP-D3', return_wfn=True)

import os
os.chdir(os.environ['HTMD_PSI4_WORKDIR'])

oeprop(wfn, 'DIPOLE', 'QUADRUPOLE', 'MULLIKEN_CHARGES')

with open('psi4out.xyz', 'w') as f:
    f.write('10 ' )
    f.write('%.12f\n' % energy)
    f.write(MOL.save_string_xyz())
--------------------------------------------------------------------------

    Molecular point group: c1

    Geometry (in Angstrom), charge = 0, multiplicity = 1:

       Center              X                  Y                   Z               Mass
    ------------   -----------------  -----------------  -----------------  -----------------
         O            1.141000000000     0.017000000000     0.083000000000    15.994914619560
         C            2.558000000000     0.086000000000    -0.005000000000    12.000000000000
         C            3.192000000000    -0.789000000000     1.067000000000    12.000000000000
         O            4.536071000000    -1.094898000000     0.715903000000    15.994914619560
         H            0.789000000000     0.590000000000    -0.620000000000     1.007825032070
         H            2.874000000000     1.128000000000     0.115000000000     1.007825032070
         H            2.871000000000    -0.243000000000    -1.001000000000     1.007825032070
         H            2.629964000000    -1.721193000000     1.181322000000     1.007825032070
         H            3.183526000000    -0.274479000000     2.034509000000     1.007825032070
         H            4.890266000000    -1.652326000000     1.430540000000     1.007825032070

  Charge       = 0
  Multiplicity = 1
  Basis Set: CC-PVDZ
    Blend: CC-PVDZ
  Basis Set: (CC-PVDZ AUX)
    Blend: CC-PVDZ-JKFIT

    Orbital Energies [Eh]
    ---------------------

    Doubly Occupied:

       1A    -19.131250     2A    -19.131236     3A    -10.226058
       4A    -10.225862     5A     -1.018635     6A     -1.008145
       7A     -0.732377     8A     -0.603548     9A     -0.525468
      10A     -0.488204    11A     -0.464276    12A     -0.412076
      13A     -0.396405    14A     -0.349709    15A     -0.319541
      16A     -0.264310    17A     -0.262214

  @DF-RKS Final Energy:  -230.25625687189753

   => Energetics <=

    Nuclear Repulsion Energy =            129.5210008651582143
    One-Electron Energy =                -570.8026306815795579
    Two-Electron Energy =                 235.5693055701999015
    DFT Exchange-Correlation Energy =     -24.5395617356760773
    Empirical Dispersion Energy =          -0.0043708900000000
    VV10 Nonlocal Energy =                  0.0000000000000000
    Total Energy =                       -230.2562568718975058

  Dipole Moment: [D]
     X:     0.0600      Y:     0.3250      Z:     0.2278     Total:     0.4013

  Mulliken Charges: (a.u.)
   Center  Symbol    Alpha    Beta     Spin     Total
       1     O     4.14051  4.14051  0.00000 -0.28102
       2     C     2.93582  2.93582  0.00000  0.12836
       3     C     2.93596  2.93596  0.00000  0.12808
       4     O     4.14071  4.14071  0.00000 -0.28141
       5     H     0.42784  0.42784  0.00000  0.14431
       6     H     0.49884  0.49884  0.00000  0.00231
       7     H     0.49694  0.49694  0.00000  0.00612
       8     H     0.49683  0.49683  0.00000  0.00634
       9     H     0.49875  0.49875  0.00000  0.00250
      10     H     0.42780  0.42780  0.00000  0.14440

   Total alpha = 17.00000, Total beta = 17.00000, Total charge =  0.00000

*** Psi4 exiting successfully. Buy a developer a beer!
