                               Psi4 1.2.1 release

  ==> Input File <==

--------------------------------------------------------------------------
set_num_threads(1)
set_memory('5348 MB')

set { scf_mem_safety_factor 0.7 }

set { reference rks }
set { basis cc-pVDZ }

molecule MOL {
    0 1
    noreorient
    nocom
    symmetry c1
    O    1.050400   0.042900  -0.048100
    C    2.474100   0.047400  -0.029000
    C    3.002600  -1.068900  -0.932000
    N    2.002702  -1.513138  -1.901720
    H    0.760400   0.728400   0.578000
    H    2.809900  -0.097900   1.003200
    H    2.817400   1.026800  -0.378600
    H    3.327705  -1.918609  -0.320411
    H    3.893617  -0.714139  -1.462367
    H    1.226178  -1.952759  -1.408542
    H    2.412327  -2.243379  -2.484135
}

set optking { frozen_dihedral = (" 1 2 3 4 ") }

energy, wfn = energy('B3LYP-D3', return_wfn=True)

import os
os.chdir(os.environ['HTMD_PSI4_WORKDIR'])

oeprop(wfn, 'DIPOLE', 'QUADRUPOLE', 'MULLIKEN_CHARGES')

with open('psi4out.xyz', 'w') as f:
    f.write('11 ' )
    f.write('%.12f\n' % energy)
    f.write(MOL.save_string_xyz())
--------------------------------------------------------------------------

    Molecular point group: c1

    Geometry (in Angstrom), charge = 0, multiplicity = 1:

       Center              X                  Y                   Z               Mass
    ------------   -----------------  -----------------  -----------------  -----------------
         O            1.050400000000     0.042900000000    -0.048100000000    15.994914619560
         C            2.474100000000     0.047400000000    -0.029000000000    12.000000000000
         C            3.002600000000    -1.068900000000    -0.932000000000    12.000000000000
         N            2.002702000000    -1.513138000000    -1.901720000000    14.003074004780
         H            0.760400000000     0.728400000000     0.578000000000     1.007825032070
         H            2.809900000000    -0.097900000000     1.003200000000     1.007825032070
         H            2.817400000000     1.026800000000    -0.378600000000     1.007825032070
         H            3.327705000000    -1.918609000000    -0.320411000000     1.007825032070
         H            3.893617000000    -0.714139000000    -1.462367000000     1.007825032070
         H            1.226178000000    -1.952759000000    -1.408542000000     1.007825032070
         H            2.412327000000    -2.243379000000    -2.484135000000     1.007825032070

  Charge       = 0
  Multiplicity = 1
  Basis Set: CC-PVDZ
    Blend: CC-PVDZ
  Basis Set: (CC-PVDZ AUX)
    Blend: CC-PVDZ-JKFIT

    Orbital Energies [Eh]
    ---------------------

    Doubly Occupied:

       1A    -19.125880     2A    -14.292636     3A    -10.223376
       4A    -10.200952     5A     -1.009341     6A     -0.865513
       7A     -0.714278     8A     -0.590637     9A     -0.514088
      10A     -0.474676    11A     -0.449499    12A     -0.408965
      13A     -0.389952    14A     -0.356081    15A     -0.325152
      16A     -0.262222    17A     -0.216583

  @DF-RKS Final Energy:  -210.38487071922066

   => Energetics <=

    Nuclear Repulsion Energy =            134.0784250054400388
    One-Electron Energy =                -551.2025044303406958
    Two-Electron Energy =                 230.2341460070979906
    DFT Exchange-Correlation Energy =     -23.4900044414180300
    Empirical Dispersion Energy =          -0.0049328600000000
    VV10 Nonlocal Energy =                  0.0000000000000000
    Total Energy =                       -210.3848707192206575

  Dipole Moment: [D]
     X:     0.9330      Y:    -0.1172      Z:     1.4448     Total:     1.7239

  Mulliken Charges: (a.u.)
   Center  Symbol    Alpha    Beta     Spin     Total
       1     O     4.13682  4.13682  0.00000 -0.27363
       2     C     2.92521  2.92521  0.00000  0.14959
       3     C     2.98774  2.98774  0.00000  0.02453
       4     N     3.58506  3.58506  0.00000 -0.17012
       5     H     0.43084  0.43084  0.00000  0.13832
       6     H     0.50375  0.50375  0.00000 -0.00749
       7     H     0.50049  0.50049  0.00000 -0.00097
       8     H     0.50502  0.50502  0.00000 -0.01005
       9     H     0.49438  0.49438  0.00000  0.01123
      10     H     0.46250  0.46250  0.00000  0.07500
      11     H     0.46820  0.46820  0.00000  0.06360

   Total alpha = 17.00000, Total beta = 17.00000, Total charge =  0.00000

*** Psi4 exiting successfully. Buy a developer a beer!
