                               Psi4 1.2.1 release

  ==> Input File <==

--------------------------------------------------------------------------
set_num_threads(1)
set_memory('5348 MB')

set { scf_mem_safety_factor 0.7 }

set { reference rks }
set { basis cc-pVDZ }

molecule MOL {
    0 1
    noreorient
    nocom
    symmetry c1
    O    1.014300  -0.002300   0.060500
    O    2.462400  -0.107500  -0.002400
    H    0.821200  -0.823600  -0.430600
    H    2.650567   0.493502   0.743406
}

set optking { frozen_dihedral = (" 3 1 2 4 ") }

set optking { dynamic_level = 1
 geom_maxiter = 250
 print_trajectory_xyz_file = True }

energy, wfn = optimize('B3LYP-D3', return_wfn=True)

import os
os.chdir(os.environ['HTMD_PSI4_WORKDIR'])

oeprop(wfn, 'DIPOLE', 'QUADRUPOLE', 'MULLIKEN_CHARGES')

with open('psi4out.xyz', 'w') as f:
    f.write('4 ' )
    f.write('%.12f\n' % energy)
    f.write(MOL.save_string_xyz())
--------------------------------------------------------------------------

    Molecular point group: c1
  Charge       = 0
  Multiplicity = 1
  Basis Set: CC-PVDZ
    Blend: CC-PVDZ
  Basis Set: (CC-PVDZ AUX)
    Blend: CC-PVDZ-JKFIT
  @DF-RKS Final Energy:  -151.54986291716997
    Total Energy =                       -151.5498629171699463
    Molecular point group: c1
  Basis Set: CC-PVDZ
    Blend: CC-PVDZ
  Basis Set: (CC-PVDZ AUX)
    Blend: CC-PVDZ-JKFIT
  Basis Set: CC-PVDZ
    Blend: CC-PVDZ
  Basis Set: (CC-PVDZ AUX)
    Blend: CC-PVDZ-JKFIT
  @DF-RKS Final Energy:  -151.55003896046165
    Total Energy =                       -151.5500389604616203
  Basis Set: CC-PVDZ
    Blend: CC-PVDZ
  Basis Set: (CC-PVDZ AUX)
    Blend: CC-PVDZ-JKFIT
  Charge       = 0
  Multiplicity = 1
  Basis Set: CC-PVDZ
    Blend: CC-PVDZ
  Basis Set: (CC-PVDZ AUX)
    Blend: CC-PVDZ-JKFIT

    Orbital Energies [Eh]
    ---------------------

    Doubly Occupied:

       1A    -19.185699     2A    -19.185660     3A     -1.104606
       4A     -0.890498     5A     -0.500856     6A     -0.497668
       7A     -0.392118     8A     -0.348533     9A     -0.246047

  @DF-RKS Final Energy:  -151.55028304467794

   => Energetics <=

    Nuclear Repulsion Energy =             36.6021269977907338
    One-Electron Energy =                -281.2172603359544496
    Two-Electron Energy =                 107.5268214511414158
    DFT Exchange-Correlation Energy =     -14.4616330376556146
    Empirical Dispersion Energy =          -0.0003381200000000
    VV10 Nonlocal Energy =                  0.0000000000000000
    Total Energy =                       -151.5502830446779399
    Molecular point group: c1
  Basis Set: CC-PVDZ
    Blend: CC-PVDZ
  Basis Set: (CC-PVDZ AUX)
    Blend: CC-PVDZ-JKFIT

  -Total Gradient:
     Atom            X                  Y                   Z
    ------   -----------------  -----------------  -----------------
       1       -0.000021898071    -0.000396410903     0.000480300594
       2        0.000004079368    -0.000417607687     0.000462606099
       3       -0.000125715783     0.000298767756    -0.000569528490
       4        0.000143578373     0.000517226898    -0.000375663791

  **** Optimization is complete! (in 3 steps) ****
    Final optimized geometry and variables:
    Molecular point group: c1

    Geometry (in Angstrom), charge = 0, multiplicity = 1:

    O            1.008783403629    -0.012837793667     0.052244435914
    O            2.467895856456    -0.097937956303     0.006920807277
    H            0.803068711255    -0.827932968230    -0.435656124601
    H            2.668719028661     0.498810718199     0.747396881410

  Dipole Moment: [D]
     X:    -0.0086      Y:    -0.3844      Z:     0.4446     Total:     0.5878

  Mulliken Charges: (a.u.)
   Center  Symbol    Alpha    Beta     Spin     Total
       1     O     4.09082  4.09082  0.00000 -0.18164
       2     O     4.09082  4.09082  0.00000 -0.18164
       3     H     0.40918  0.40918  0.00000  0.18164
       4     H     0.40918  0.40918  0.00000  0.18164

   Total alpha =  9.00000, Total beta =  9.00000, Total charge = -0.00000

*** Psi4 exiting successfully. Buy a developer a beer!
