                               Psi4 1.2.1 release

  ==> Input File <==

--------------------------------------------------------------------------
set_num_threads(1)
set_memory('5348 MB')

set { scf_mem_safety_factor 0.7 }

set { reference rks }
set { basis cc-pVDZ }

molecule MOL {
    0 1
    noreorient
    nocom
    symmetry c1
    O    1.141000   0.017000   0.083000
    C    2.558000   0.086000  -0.005000
    C    3.192000  -0.789000   1.067000
    O    4.591201  -0.904743   0.838509
    H    0.789000   0.590000  -0.620000
    H    2.874000   1.128000   0.115000
    H    2.871000  -0.243000  -1.001000
    H    2.743516  -1.787375   1.060145
    H    3.026566  -0.356650   2.060269
    H    4.942997  -1.470556   1.547720
}

set optking { frozen_dihedral = (" 1 2 3 4 ") }

energy, wfn = energy('B3LYP-D3', return_wfn=True)

import os
os.chdir(os.environ['HTMD_PSI4_WORKDIR'])

oeprop(wfn, 'DIPOLE', 'QUADRUPOLE', 'MULLIKEN_CHARGES')

with open('psi4out.xyz', 'w') as f:
    f.write('10 ' )
    f.write('%.12f\n' % energy)
    f.write(MOL.save_string_xyz())
--------------------------------------------------------------------------

    Molecular point group: c1

    Geometry (in Angstrom), charge = 0, multiplicity = 1:

       Center              X                  Y                   Z               Mass
    ------------   -----------------  -----------------  -----------------  -----------------
         O            1.141000000000     0.017000000000     0.083000000000    15.994914619560
         C            2.558000000000     0.086000000000    -0.005000000000    12.000000000000
         C            3.192000000000    -0.789000000000     1.067000000000    12.000000000000
         O            4.591201000000    -0.904743000000     0.838509000000    15.994914619560
         H            0.789000000000     0.590000000000    -0.620000000000     1.007825032070
         H            2.874000000000     1.128000000000     0.115000000000     1.007825032070
         H            2.871000000000    -0.243000000000    -1.001000000000     1.007825032070
         H            2.743516000000    -1.787375000000     1.060145000000     1.007825032070
         H            3.026566000000    -0.356650000000     2.060269000000     1.007825032070
         H            4.942997000000    -1.470556000000     1.547720000000     1.007825032070

  Charge       = 0
  Multiplicity = 1
  Basis Set: CC-PVDZ
    Blend: CC-PVDZ
  Basis Set: (CC-PVDZ AUX)
    Blend: CC-PVDZ-JKFIT

    Orbital Energies [Eh]
    ---------------------

    Doubly Occupied:

       1A    -19.131583     2A    -19.131551     3A    -10.226290
       4A    -10.226094     5A     -1.018806     6A     -1.008489
       7A     -0.732359     8A     -0.603627     9A     -0.525847
      10A     -0.482822    11A     -0.470857    12A     -0.412213
      13A     -0.395444    14A     -0.350131    15A     -0.319318
      16A     -0.264181    17A     -0.263129

  @DF-RKS Final Energy:  -230.25704709043339

   => Energetics <=

    Nuclear Repulsion Energy =            129.4612366478919512
    One-Electron Energy =                -570.6781905327227378
    Two-Electron Energy =                 235.5032626182797628
    DFT Exchange-Correlation Energy =     -24.5389567238823574
    Empirical Dispersion Energy =          -0.0043991000000000
    VV10 Nonlocal Energy =                  0.0000000000000000
    Total Energy =                       -230.2570470904333888

  Dipole Moment: [D]
     X:     0.0120      Y:     0.1597      Z:     0.1213     Total:     0.2009

  Mulliken Charges: (a.u.)
   Center  Symbol    Alpha    Beta     Spin     Total
       1     O     4.14045  4.14045  0.00000 -0.28090
       2     C     2.93613  2.93613  0.00000  0.12773
       3     C     2.93627  2.93627  0.00000  0.12745
       4     O     4.14066  4.14066  0.00000 -0.28132
       5     H     0.42744  0.42744  0.00000  0.14512
       6     H     0.49837  0.49837  0.00000  0.00326
       7     H     0.49756  0.49756  0.00000  0.00488
       8     H     0.49744  0.49744  0.00000  0.00511
       9     H     0.49828  0.49828  0.00000  0.00344
      10     H     0.42739  0.42739  0.00000  0.14523

   Total alpha = 17.00000, Total beta = 17.00000, Total charge = -0.00000

*** Psi4 exiting successfully. Buy a developer a beer!
