                               Psi4 1.2.1 release

  ==> Input File <==

--------------------------------------------------------------------------
set_num_threads(4)
set_memory('3000 MB')

set { scf_mem_safety_factor 0.7 }

set { reference rks }
set { basis 6-31G* }

molecule MOL {
    1 1
    noreorient
    nocom
    symmetry c1
    C   -0.000000  -0.000000  -0.177864
    C    0.036678   1.219374   0.524165
    C    0.031765   1.213120   1.915444
    C    0.000000   0.000000   2.610107
    C   -0.031765  -1.213120   1.915444
    C   -0.036678  -1.219375   0.524165
    C   -0.000000   0.000000  -1.644734
    H    0.018170   2.164705  -0.010854
    H    0.042402   2.152895   2.457886
    H    0.000000   0.000000   3.695756
    H   -0.042402  -2.152895   2.457886
    H   -0.018170  -2.164705  -0.010853
    N   -0.712590  -0.905950  -2.308461
    N    0.712590   0.905950  -2.308460
    H    0.673432   1.006470  -3.315997
    H    1.377190   1.485970  -1.813316
    H   -1.092986  -0.680247  -3.218209
    H   -0.845024  -1.853713  -1.975334
}

set optking { frozen_dihedral = (" 1 7 13 17 ") }

set optking { dynamic_level = 1
 geom_maxiter = 250
 print_trajectory_xyz_file = True }

energy, wfn = optimize('B3LYP-D3', return_wfn=True)

import os
os.chdir(os.environ['HTMD_PSI4_WORKDIR'])

oeprop(wfn, 'DIPOLE', 'QUADRUPOLE', 'MULLIKEN_CHARGES')

with open('psi4out.xyz', 'w') as f:
    f.write('18 ' )
    f.write('%.12f\n' % energy)
    f.write(MOL.save_string_xyz())
--------------------------------------------------------------------------

    Molecular point group: c1
  Charge       = 1
  Multiplicity = 1
  Basis Set: 6-31G*
    Blend: 6-31G*
  Basis Set: (6-31G* AUX)
    Blend: CC-PVDZ-JKFIT
  @DF-RKS Final Energy:  -381.45445535701924
    Total Energy =                       -381.4544553570192420
    Molecular point group: c1
  Basis Set: 6-31G*
    Blend: 6-31G*
  Basis Set: (6-31G* AUX)
    Blend: CC-PVDZ-JKFIT
  Basis Set: 6-31G*
    Blend: 6-31G*
  Basis Set: (6-31G* AUX)
    Blend: CC-PVDZ-JKFIT
  @DF-RKS Final Energy:  -381.46077310215668
    Total Energy =                       -381.4607731021566792
  Basis Set: 6-31G*
    Blend: 6-31G*
  Basis Set: (6-31G* AUX)
    Blend: CC-PVDZ-JKFIT
  Basis Set: 6-31G*
    Blend: 6-31G*
  @DF-RKS Final Energy:  -381.46276379283199
    Total Energy =                       -381.4627637928320496
  @DF-RKS Final Energy:  -381.46520386848471
    Total Energy =                       -381.4652038684847071
  @DF-RKS Final Energy:  -381.46555740894530
    Total Energy =                       -381.4655574089453012
  @DF-RKS Final Energy:  -381.46559562183563
    Total Energy =                       -381.4655956218355755
  Basis Set: (6-31G* AUX)
    Blend: CC-PVDZ-JKFIT
  Basis Set: 6-31G*
    Blend: 6-31G*
  Basis Set: (6-31G* AUX)
    Blend: CC-PVDZ-JKFIT
  @DF-RKS Final Energy:  -381.46560017064411
    Total Energy =                       -381.4656001706441089
  Basis Set: 6-31G*
    Blend: 6-31G*
  Basis Set: (6-31G* AUX)
    Blend: CC-PVDZ-JKFIT
  Charge       = 1
  Multiplicity = 1
  Basis Set: 6-31G*
    Blend: 6-31G*
  Basis Set: (6-31G* AUX)
    Blend: CC-PVDZ-JKFIT

    Orbital Energies [Eh]
    ---------------------

    Doubly Occupied:

       1A    -14.572329     2A    -14.564769     3A    -10.500204
       4A    -10.376030     5A    -10.358468     6A    -10.357325
       7A    -10.343828     8A    -10.341898     9A    -10.341686
      10A     -1.185691    11A     -1.093857    12A     -1.015942
      13A     -0.927917    14A     -0.903803    15A     -0.845663
      16A     -0.785866    17A     -0.775218    18A     -0.739800
      19A     -0.733230    20A     -0.682320    21A     -0.669557
      22A     -0.629814    23A     -0.615909    24A     -0.593571
      25A     -0.579027    26A     -0.575445    27A     -0.518470
      28A     -0.507987    29A     -0.499764    30A     -0.475473
      31A     -0.411857    32A     -0.407094

  @DF-RKS Final Energy:  -381.46560061477288

   => Energetics <=

    Nuclear Repulsion Energy =            416.8238382909125335
    One-Electron Energy =               -1328.7733540570211517
    Two-Electron Energy =                 574.8988885417385291
    DFT Exchange-Correlation Energy =     -44.4031008904028752
    Empirical Dispersion Energy =          -0.0118725000000000
    VV10 Nonlocal Energy =                  0.0000000000000000
    Total Energy =                       -381.4656006147728817
    Molecular point group: c1
  Basis Set: 6-31G*
    Blend: 6-31G*
  Basis Set: (6-31G* AUX)
    Blend: CC-PVDZ-JKFIT

  -Total Gradient:
     Atom            X                  Y                   Z
    ------   -----------------  -----------------  -----------------
       1       -0.005259991611     0.003901658310    -0.000035728822
       2        0.000004489938    -0.000015956511    -0.000012896604
       3       -0.000001042564     0.000007709689     0.000006476870
       4       -0.000003472515    -0.000010755547    -0.000005861643
       5       -0.000001195060     0.000016556959     0.000015777844
       6        0.000010451874    -0.000026172929    -0.000013589587
       7        0.005091189539    -0.004843756814     0.001604336015
       8       -0.000004221937    -0.000001744774    -0.000003193285
       9        0.000000667738    -0.000001581891     0.000000614409
      10        0.000001784540     0.000002690979    -0.000000257002
      11       -0.000003835612    -0.000001416262    -0.000001557917
      12       -0.000003605359     0.000005521361    -0.000001458632
      13        0.008238093285    -0.001960899074    -0.005582053750
      14       -0.000013512914    -0.000054645154     0.000002569238
      15       -0.000019664082     0.000018019171     0.000000758476
      16        0.000004130547    -0.000005167073     0.000003351326
      17       -0.008037688340     0.002949052334     0.003998089667
      18       -0.000007229613     0.000015782912     0.000005707297

  **** Optimization is complete! (in 8 steps) ****
    Final optimized geometry and variables:
    Molecular point group: c1

    Geometry (in Angstrom), charge = 1, multiplicity = 1:

    C            0.049475033191    -0.025484430406    -0.186926837882
    C            0.046345504468     1.197198718468     0.509858289207
    C            0.006560088263     1.196087879433     1.901067922678
    C           -0.011721574957    -0.013151633831     2.601795179522
    C            0.002272543560    -1.229607718470     1.912270205257
    C            0.027793888549    -1.241850164806     0.521547272661
    C            0.062691156468    -0.029048250654    -1.655127682519
    H            0.016208286774     2.141814864090    -0.025646132179
    H           -0.018834424693     2.138924571867     2.437708529379
    H           -0.037284560719    -0.007832386907     3.687074113057
    H            0.003028049640    -2.167280632842     2.458411481208
    H            0.082053165090    -2.190585515502    -0.005738405017
    N           -0.618702853729    -0.962289817496    -2.334662861097
    N            0.702853079753     0.927362713441    -2.315690005097
    H            0.705156910158     0.984220032162    -3.327771151224
    H            1.318013842679     1.560363047978    -1.821085680218
    H           -0.999858655675    -0.755806857263    -3.252415839837
    H           -1.223437478822    -1.564555419259    -1.787897397898

  Dipole Moment: [D]
     X:    -0.3290      Y:     0.5341      Z:    -5.5146     Total:     5.5502

  Mulliken Charges: (a.u.)
   Center  Symbol    Alpha    Beta     Spin     Total
       1     C     2.95330  2.95330  0.00000  0.09340
       2     C     3.08316  3.08316  0.00000 -0.16633
       3     C     3.06238  3.06238  0.00000 -0.12477
       4     C     3.05159  3.05159  0.00000 -0.10317
       5     C     3.06225  3.06225  0.00000 -0.12451
       6     C     3.08552  3.08552  0.00000 -0.17103
       7     C     2.73395  2.73395  0.00000  0.53211
       8     H     0.41518  0.41518  0.00000  0.16964
       9     H     0.40521  0.40521  0.00000  0.18958
      10     H     0.40363  0.40363  0.00000  0.19273
      11     H     0.40493  0.40493  0.00000  0.19014
      12     H     0.41159  0.41159  0.00000  0.17682
      13     N     3.85680  3.85680  0.00000 -0.71361
      14     N     3.85841  3.85841  0.00000 -0.71682
      15     H     0.30377  0.30377  0.00000  0.39247
      16     H     0.29874  0.29874  0.00000  0.40252
      17     H     0.30600  0.30600  0.00000  0.38800
      18     H     0.30359  0.30359  0.00000  0.39282

   Total alpha = 32.00000, Total beta = 32.00000, Total charge =  1.00000

*** Psi4 exiting successfully. Buy a developer a beer!
