                               Psi4 1.2.1 release

  ==> Input File <==

--------------------------------------------------------------------------
set_num_threads(1)
set_memory('5348 MB')

set { scf_mem_safety_factor 0.7 }

set { reference rks }
set { basis cc-pVDZ }

molecule MOL {
    0 1
    noreorient
    nocom
    symmetry c1
    O    1.050400   0.042900  -0.048100
    C    2.474100   0.047400  -0.029000
    C    3.002600  -1.068900  -0.932000
    N    4.462700  -1.072400  -1.006800
    H    0.767137  -0.757767   0.425932
    H    2.809900  -0.097900   1.003200
    H    2.817400   1.026800  -0.378600
    H    2.581000  -0.963300  -1.938400
    H    2.653800  -2.036400  -0.553400
    H    4.779000  -0.221000  -1.470000
    H    4.758600  -1.842500  -1.606500
}

set optking { frozen_dihedral = (" 3 2 1 5 ") }

energy, wfn = energy('B3LYP-D3', return_wfn=True)

import os
os.chdir(os.environ['HTMD_PSI4_WORKDIR'])

oeprop(wfn, 'DIPOLE', 'QUADRUPOLE', 'MULLIKEN_CHARGES')

with open('psi4out.xyz', 'w') as f:
    f.write('11 ' )
    f.write('%.12f\n' % energy)
    f.write(MOL.save_string_xyz())
--------------------------------------------------------------------------

    Molecular point group: c1

    Geometry (in Angstrom), charge = 0, multiplicity = 1:

       Center              X                  Y                   Z               Mass
    ------------   -----------------  -----------------  -----------------  -----------------
         O            1.050400000000     0.042900000000    -0.048100000000    15.994914619560
         C            2.474100000000     0.047400000000    -0.029000000000    12.000000000000
         C            3.002600000000    -1.068900000000    -0.932000000000    12.000000000000
         N            4.462700000000    -1.072400000000    -1.006800000000    14.003074004780
         H            0.767137000000    -0.757767000000     0.425932000000     1.007825032070
         H            2.809900000000    -0.097900000000     1.003200000000     1.007825032070
         H            2.817400000000     1.026800000000    -0.378600000000     1.007825032070
         H            2.581000000000    -0.963300000000    -1.938400000000     1.007825032070
         H            2.653800000000    -2.036400000000    -0.553400000000     1.007825032070
         H            4.779000000000    -0.221000000000    -1.470000000000     1.007825032070
         H            4.758600000000    -1.842500000000    -1.606500000000     1.007825032070

  Charge       = 0
  Multiplicity = 1
  Basis Set: CC-PVDZ
    Blend: CC-PVDZ
  Basis Set: (CC-PVDZ AUX)
    Blend: CC-PVDZ-JKFIT

    Orbital Energies [Eh]
    ---------------------

    Doubly Occupied:

       1A    -19.129452     2A    -14.305878     3A    -10.224755
       4A    -10.202867     5A     -1.011838     6A     -0.878132
       7A     -0.711023     8A     -0.608989     9A     -0.503250
      10A     -0.487867    11A     -0.443269    12A     -0.424087
      13A     -0.395422    14A     -0.370893    15A     -0.320880
      16A     -0.264632    17A     -0.232632

  @DF-RKS Final Energy:  -210.39252275731303

   => Energetics <=

    Nuclear Repulsion Energy =            130.7976122498147618
    One-Electron Energy =                -544.4660660160122916
    Two-Electron Energy =                 226.7675898228474409
    DFT Exchange-Correlation Energy =     -23.4865007639629191
    Empirical Dispersion Energy =          -0.0051580500000000
    VV10 Nonlocal Energy =                  0.0000000000000000
    Total Energy =                       -210.3925227573130314

  Dipole Moment: [D]
     X:     0.5175      Y:    -1.0602      Z:    -0.5755     Total:     1.3127

  Mulliken Charges: (a.u.)
   Center  Symbol    Alpha    Beta     Spin     Total
       1     O     4.13930  4.13930  0.00000 -0.27860
       2     C     2.92244  2.92244  0.00000  0.15511
       3     C     2.99300  2.99300  0.00000  0.01400
       4     N     3.59364  3.59364  0.00000 -0.18728
       5     H     0.43102  0.43102  0.00000  0.13796
       6     H     0.49728  0.49728  0.00000  0.00545
       7     H     0.49268  0.49268  0.00000  0.01463
       8     H     0.50139  0.50139  0.00000 -0.00279
       9     H     0.50008  0.50008  0.00000 -0.00016
      10     H     0.46482  0.46482  0.00000  0.07036
      11     H     0.46435  0.46435  0.00000  0.07130

   Total alpha = 17.00000, Total beta = 17.00000, Total charge =  0.00000

*** Psi4 exiting successfully. Buy a developer a beer!
