                               Psi4 1.2.1 release

  ==> Input File <==

--------------------------------------------------------------------------
set_num_threads(4)
set_memory('3000 MB')

set { scf_mem_safety_factor 0.7 }

set { reference rks }
set { basis 6-31G* }

molecule MOL {
    1 1
    noreorient
    nocom
    symmetry c1
    C   -0.000000  -0.000000  -0.177864
    C    0.036678   1.219374   0.524165
    C    0.031765   1.213120   1.915444
    C    0.000000   0.000000   2.610107
    C   -0.031765  -1.213120   1.915444
    C   -0.036678  -1.219375   0.524165
    C   -0.000000   0.000000  -1.644734
    H    0.018170   2.164705  -0.010854
    H    0.042402   2.152895   2.457886
    H    0.000000   0.000000   3.695756
    H   -0.042402  -2.152895   2.457886
    H   -0.018170  -2.164705  -0.010853
    N   -0.712590  -0.905950  -2.308461
    N    0.712590   0.905950  -2.308460
    H    0.673432   1.006470  -3.315997
    H    1.377190   1.485970  -1.813316
    H   -0.403630  -1.222472  -3.218209
    H   -1.532305  -1.355438  -1.917572
}

set optking { frozen_dihedral = (" 1 7 13 17 ") }

set optking { dynamic_level = 1
 geom_maxiter = 250
 print_trajectory_xyz_file = True }

energy, wfn = optimize('B3LYP-D3', return_wfn=True)

import os
os.chdir(os.environ['HTMD_PSI4_WORKDIR'])

oeprop(wfn, 'DIPOLE', 'QUADRUPOLE', 'MULLIKEN_CHARGES')

with open('psi4out.xyz', 'w') as f:
    f.write('18 ' )
    f.write('%.12f\n' % energy)
    f.write(MOL.save_string_xyz())
--------------------------------------------------------------------------

    Molecular point group: c1
  Charge       = 1
  Multiplicity = 1
  Basis Set: 6-31G*
    Blend: 6-31G*
  Basis Set: (6-31G* AUX)
    Blend: CC-PVDZ-JKFIT
  @DF-RKS Final Energy:  -381.46623703659100
    Total Energy =                       -381.4662370365909965
    Molecular point group: c1
  Basis Set: 6-31G*
    Blend: 6-31G*
  Basis Set: (6-31G* AUX)
    Blend: CC-PVDZ-JKFIT
  Basis Set: 6-31G*
    Blend: 6-31G*
  Basis Set: (6-31G* AUX)
    Blend: CC-PVDZ-JKFIT
  @DF-RKS Final Energy:  -381.46770799732104
    Total Energy =                       -381.4677079973210425
  Basis Set: 6-31G*
    Blend: 6-31G*
  Basis Set: (6-31G* AUX)
    Blend: CC-PVDZ-JKFIT
  Basis Set: 6-31G*
    Blend: 6-31G*
  @DF-RKS Final Energy:  -381.46846051009192
    Total Energy =                       -381.4684605100919157
  @DF-RKS Final Energy:  -381.46852327271120
    Total Energy =                       -381.4685232727111952
  Basis Set: (6-31G* AUX)
    Blend: CC-PVDZ-JKFIT
  Basis Set: 6-31G*
    Blend: 6-31G*
  Basis Set: (6-31G* AUX)
    Blend: CC-PVDZ-JKFIT
  @DF-RKS Final Energy:  -381.46853117350196
    Total Energy =                       -381.4685311735020150
  Basis Set: 6-31G*
    Blend: 6-31G*
  Basis Set: (6-31G* AUX)
    Blend: CC-PVDZ-JKFIT
  Charge       = 1
  Multiplicity = 1
  Basis Set: 6-31G*
    Blend: 6-31G*
  Basis Set: (6-31G* AUX)
    Blend: CC-PVDZ-JKFIT

    Orbital Energies [Eh]
    ---------------------

    Doubly Occupied:

       1A    -14.568125     2A    -14.563746     3A    -10.496249
       4A    -10.374190     5A    -10.358640     6A    -10.357754
       7A    -10.345573     8A    -10.342240     9A    -10.342081
      10A     -1.182150    11A     -1.089718    12A     -1.015741
      13A     -0.927404    14A     -0.904012    15A     -0.844501
      16A     -0.784854    17A     -0.772172    18A     -0.741560
      19A     -0.732614    20A     -0.687092    21A     -0.670868
      22A     -0.627916    23A     -0.616205    24A     -0.585270
      25A     -0.580765    26A     -0.572136    27A     -0.520277
      28A     -0.507223    29A     -0.499614    30A     -0.471594
      31A     -0.414185    32A     -0.407544

  @DF-RKS Final Energy:  -381.46853215269482

   => Energetics <=

    Nuclear Repulsion Energy =            416.8156107084686255
    One-Electron Energy =               -1328.8134565553325501
    Two-Electron Energy =                 574.9454841321676213
    DFT Exchange-Correlation Energy =     -44.4042161579984764
    Empirical Dispersion Energy =          -0.0119542800000000
    VV10 Nonlocal Energy =                  0.0000000000000000
    Total Energy =                       -381.4685321526947632
    Molecular point group: c1
  Basis Set: 6-31G*
    Blend: 6-31G*
  Basis Set: (6-31G* AUX)
    Blend: CC-PVDZ-JKFIT

  -Total Gradient:
     Atom            X                  Y                   Z
    ------   -----------------  -----------------  -----------------
       1        0.003195984424    -0.002496539892    -0.000092227728
       2       -0.000027820611     0.000023332877     0.000055060126
       3        0.000011792212    -0.000004432857    -0.000002281807
       4        0.000029408439     0.000023472962     0.000009484957
       5        0.000004523566    -0.000026607856    -0.000028624075
       6       -0.000032463016     0.000037720540     0.000040621850
       7       -0.003648461738     0.002039529825     0.001040275186
       8       -0.000001030742    -0.000006801285    -0.000003821111
       9       -0.000003096526     0.000000334741     0.000004078805
      10       -0.000017869987     0.000003667351    -0.000001316332
      11       -0.000002756917     0.000001900491    -0.000001336710
      12        0.000002795961    -0.000016762906    -0.000005232194
      13       -0.002521497225     0.004771375685    -0.003518703469
      14       -0.000018435813     0.000075696447    -0.000040965382
      15        0.000007046758    -0.000020149189    -0.000001290200
      16       -0.000008725399    -0.000015161267     0.000001018026
      17        0.003095791261    -0.004320138332     0.002495413362
      18       -0.000066923071    -0.000068516071     0.000019894872

  **** Optimization is complete! (in 6 steps) ****
    Final optimized geometry and variables:
    Molecular point group: c1

    Geometry (in Angstrom), charge = 1, multiplicity = 1:

    C           -0.021296870260     0.013956070962    -0.181979013916
    C            0.039404446775     1.229228887028     0.527923613992
    C            0.048669234234     1.216222971267     1.918364269131
    C            0.003149711096    -0.000826473271     2.606444397303
    C           -0.056550023492    -1.209773505545     1.906039601315
    C           -0.075211103740    -1.208437289465     0.515201894670
    C           -0.018096377090     0.018066491508    -1.645582696646
    H            0.029367080710     2.177037383131    -0.003071448619
    H            0.079047559751     2.152309437784     2.466375779775
    H            0.012694741087    -0.006906803574     3.692074796787
    H           -0.079289920915    -2.151852454150     2.444050620979
    H           -0.079146646938    -2.151724501939    -0.023503918951
    N           -0.722229802435    -0.885138555859    -2.332566963503
    N            0.713652216592     0.909570619681    -2.307822254719
    H            0.653868177426     1.021241748332    -3.313441964528
    H            1.379042964791     1.490051685135    -1.814129989684
    H           -0.429740658777    -1.209844867374    -3.247448651666
    H           -1.362647728815    -1.488651843650    -1.832395071720

  Dipole Moment: [D]
     X:     0.4712      Y:    -0.2470      Z:    -5.3948     Total:     5.4209

  Mulliken Charges: (a.u.)
   Center  Symbol    Alpha    Beta     Spin     Total
       1     C     2.95399  2.95399  0.00000  0.09201
       2     C     3.08163  3.08163  0.00000 -0.16327
       3     C     3.06235  3.06235  0.00000 -0.12469
       4     C     3.05099  3.05099  0.00000 -0.10198
       5     C     3.06241  3.06241  0.00000 -0.12481
       6     C     3.08093  3.08093  0.00000 -0.16185
       7     C     2.72985  2.72985  0.00000  0.54029
       8     H     0.41338  0.41338  0.00000  0.17325
       9     H     0.40487  0.40487  0.00000  0.19027
      10     H     0.40321  0.40321  0.00000  0.19359
      11     H     0.40501  0.40501  0.00000  0.18997
      12     H     0.41594  0.41594  0.00000  0.16811
      13     N     3.86360  3.86360  0.00000 -0.72720
      14     N     3.85994  3.85994  0.00000 -0.71987
      15     H     0.30438  0.30438  0.00000  0.39124
      16     H     0.30017  0.30017  0.00000  0.39965
      17     H     0.30545  0.30545  0.00000  0.38911
      18     H     0.30191  0.30191  0.00000  0.39618

   Total alpha = 32.00000, Total beta = 32.00000, Total charge =  1.00000

*** Psi4 exiting successfully. Buy a developer a beer!
