                               Psi4 1.2.1 release

  ==> Input File <==

--------------------------------------------------------------------------
set_num_threads(4)
set_memory('3000 MB')

set { scf_mem_safety_factor 0.7 }

set { reference rks }
set { basis 6-31G* }

molecule MOL {
    1 1
    noreorient
    nocom
    symmetry c1
    C   -0.000000  -0.000000  -0.177864
    C    0.036678   1.219374   0.524165
    C    0.031765   1.213120   1.915444
    C    0.000000   0.000000   2.610107
    C   -0.031765  -1.213120   1.915444
    C   -0.036678  -1.219375   0.524165
    C   -0.000000   0.000000  -1.644734
    H    0.018170   2.164705  -0.010854
    H    0.042402   2.152895   2.457886
    H    0.000000   0.000000   3.695756
    H   -0.042402  -2.152895   2.457886
    H   -0.018170  -2.164705  -0.010853
    N   -0.712590  -0.905950  -2.308461
    N    0.712590   0.905950  -2.308460
    H    0.673432   1.006470  -3.315997
    H    1.377190   1.485970  -1.813316
    H   -0.520928  -1.890856  -2.179969
    H   -1.497951  -0.662281  -2.900575
}

set optking { frozen_dihedral = (" 1 7 13 17 ") }

set optking { dynamic_level = 1
 geom_maxiter = 250
 print_trajectory_xyz_file = True }

energy, wfn = optimize('B3LYP-D3', return_wfn=True)

import os
os.chdir(os.environ['HTMD_PSI4_WORKDIR'])

oeprop(wfn, 'DIPOLE', 'QUADRUPOLE', 'MULLIKEN_CHARGES')

with open('psi4out.xyz', 'w') as f:
    f.write('18 ' )
    f.write('%.12f\n' % energy)
    f.write(MOL.save_string_xyz())
--------------------------------------------------------------------------

    Molecular point group: c1
  Charge       = 1
  Multiplicity = 1
  Basis Set: 6-31G*
    Blend: 6-31G*
  Basis Set: (6-31G* AUX)
    Blend: CC-PVDZ-JKFIT
  @DF-RKS Final Energy:  -381.43287671183435
    Total Energy =                       -381.4328767118342967
    Molecular point group: c1
  Basis Set: 6-31G*
    Blend: 6-31G*
  Basis Set: (6-31G* AUX)
    Blend: CC-PVDZ-JKFIT
  Basis Set: 6-31G*
    Blend: 6-31G*
  Basis Set: (6-31G* AUX)
    Blend: CC-PVDZ-JKFIT
  @DF-RKS Final Energy:  -381.44099141226053
    Total Energy =                       -381.4409914122605301
  Basis Set: 6-31G*
    Blend: 6-31G*
  Basis Set: (6-31G* AUX)
    Blend: CC-PVDZ-JKFIT
  Basis Set: 6-31G*
    Blend: 6-31G*
  @DF-RKS Final Energy:  -381.44666881030503
    Total Energy =                       -381.4466688103050842
  @DF-RKS Final Energy:  -381.44816244711092
    Total Energy =                       -381.4481624471109740
  @DF-RKS Final Energy:  -381.45395516785959
    Total Energy =                       -381.4539551678596467
  @DF-RKS Final Energy:  -381.44816244711001
    Total Energy =                       -381.4481624471100076
  @DF-RKS Final Energy:  -381.45429599279396
    Total Energy =                       -381.4542959927939023
  @DF-RKS Final Energy:  -381.45501872089142
    Total Energy =                       -381.4550187208914167
  @DF-RKS Final Energy:  -381.45579266407918
    Total Energy =                       -381.4557926640791834
  @DF-RKS Final Energy:  -381.45642981171483
    Total Energy =                       -381.4564298117148269
  @DF-RKS Final Energy:  -381.45535541362244
    Total Energy =                       -381.4553554136224989
  @DF-RKS Final Energy:  -381.45622155985927
    Total Energy =                       -381.4562215598593298
  @DF-RKS Final Energy:  -381.45642981171426
    Total Energy =                       -381.4564298117142584
  @DF-RKS Final Energy:  -381.45679978892389
    Total Energy =                       -381.4567997889238313
  @DF-RKS Final Energy:  -381.45698248675228
    Total Energy =                       -381.4569824867522811
  @DF-RKS Final Energy:  -381.45719986211401
    Total Energy =                       -381.4571998621140665
  @DF-RKS Final Energy:  -381.45741449621238
    Total Energy =                       -381.4574144962123228
  @DF-RKS Final Energy:  -381.45760736425905
    Total Energy =                       -381.4576073642589904
  @DF-RKS Final Energy:  -381.45780883350301
    Total Energy =                       -381.4578088335030657
  @DF-RKS Final Energy:  -381.45801501078893
    Total Energy =                       -381.4580150107889267
  @DF-RKS Final Energy:  -381.46072104897814
    Total Energy =                       -381.4607210489781437
  @DF-RKS Final Energy:  -381.46071648411714
    Total Energy =                       -381.4607164841170857
  @DF-RKS Final Energy:  -381.46071879288752
    Total Energy =                       -381.4607187928875192
  @DF-RKS Final Energy:  -381.46072104897729
    Total Energy =                       -381.4607210489772910
  @DF-RKS Final Energy:  -381.46120564729142
    Total Energy =                       -381.4612056472914219
  @DF-RKS Final Energy:  -381.46149188407918
    Total Energy =                       -381.4614918840791233
  @DF-RKS Final Energy:  -381.46157094871506
    Total Energy =                       -381.4615709487150639
  @DF-RKS Final Energy:  -381.46157573370834
    Total Energy =                       -381.4615757337084005
  @DF-RKS Final Energy:  -381.46155748027212
    Total Energy =                       -381.4615574802720630
  @DF-RKS Final Energy:  -381.46159517100483
    Total Energy =                       -381.4615951710048307
  @DF-RKS Final Energy:  -381.46159511870582
    Total Energy =                       -381.4615951187058727
  @DF-RKS Final Energy:  -381.46160751486974
    Total Energy =                       -381.4616075148697405
  @DF-RKS Final Energy:  -381.46158889723091
    Total Energy =                       -381.4615888972309676
  @DF-RKS Final Energy:  -381.46161344618793
    Total Energy =                       -381.4616134461879255
  @DF-RKS Final Energy:  -381.46161335370181
    Total Energy =                       -381.4616133537017504
  @DF-RKS Final Energy:  -381.46161461891791
    Total Energy =                       -381.4616146189179631
  @DF-RKS Final Energy:  -381.46155094648680
    Total Energy =                       -381.4615509464867955
  @DF-RKS Final Energy:  -381.46159926271014
    Total Energy =                       -381.4615992627100809
  Basis Set: (6-31G* AUX)
    Blend: CC-PVDZ-JKFIT
  Basis Set: 6-31G*
    Blend: 6-31G*
  Basis Set: (6-31G* AUX)
    Blend: CC-PVDZ-JKFIT
  @DF-RKS Final Energy:  -381.46161461891916
    Total Energy =                       -381.4616146189190999
  Basis Set: 6-31G*
    Blend: 6-31G*
  Basis Set: (6-31G* AUX)
    Blend: CC-PVDZ-JKFIT
  Charge       = 1
  Multiplicity = 1
  Basis Set: 6-31G*
    Blend: 6-31G*
  Basis Set: (6-31G* AUX)
    Blend: CC-PVDZ-JKFIT

    Orbital Energies [Eh]
    ---------------------

    Doubly Occupied:

       1A    -14.575725     2A    -14.557891     3A    -10.496632
       4A    -10.372362     5A    -10.358396     6A    -10.355295
       7A    -10.346504     8A    -10.341878     9A    -10.340339
      10A     -1.182322    11A     -1.088634    12A     -1.014890
      13A     -0.928183    14A     -0.902883    15A     -0.842882
      16A     -0.779649    17A     -0.771915    18A     -0.736866
      19A     -0.727580    20A     -0.694411    21A     -0.668445
      22A     -0.625859    23A     -0.607639    24A     -0.582237
      25A     -0.580035    26A     -0.567609    27A     -0.517579
      28A     -0.506566    29A     -0.498215    30A     -0.478560
      31A     -0.413814    32A     -0.406470

  @DF-RKS Final Energy:  -381.46161479271035

   => Energetics <=

    Nuclear Repulsion Energy =            416.5464039915059971
    One-Electron Energy =               -1328.3375093988286153
    Two-Electron Energy =                 574.7387425995018475
    DFT Exchange-Correlation Energy =     -44.3974568448895539
    Empirical Dispersion Energy =          -0.0117951400000000
    VV10 Nonlocal Energy =                  0.0000000000000000
    Total Energy =                       -381.4616147927104066
    Molecular point group: c1
  Basis Set: 6-31G*
    Blend: 6-31G*
  Basis Set: (6-31G* AUX)
    Blend: CC-PVDZ-JKFIT

  -Total Gradient:
     Atom            X                  Y                   Z
    ------   -----------------  -----------------  -----------------
       1       -0.008755203868     0.000152253581    -0.000058650825
       2       -0.000199728837     0.000167582876     0.000042907127
       3        0.000039376520     0.000085348095    -0.000062408236
       4        0.000065176146    -0.000049780372     0.000077755663
       5       -0.000043348141    -0.000024840373    -0.000049065040
       6       -0.000030023192    -0.000020682585     0.000072322113
       7        0.015602484083     0.001669901743    -0.003045196893
       8        0.000098355674    -0.000001741516     0.000010580878
       9        0.000074384772     0.000015445900     0.000012466688
      10       -0.000028207025     0.000016735777     0.000019011080
      11       -0.000036599569    -0.000075506564     0.000035186845
      12       -0.000026070190    -0.000097449704    -0.000027823738
      13       -0.013074633878    -0.007190399094     0.012329666718
      14        0.000059603802    -0.000070971569    -0.000082727812
      15        0.000001751980     0.000007497818    -0.000022492172
      16       -0.000033985494     0.000146687282     0.000044318852
      17        0.006268139655     0.005299166958    -0.009326486278
      18        0.000008553535    -0.000032690760     0.000015879676

  **** Optimization is complete! (in 2 steps) ****
    Final optimized geometry and variables:
    Molecular point group: c1

    Geometry (in Angstrom), charge = 1, multiplicity = 1:

    C            0.031058184910    -0.006635100739    -0.148758139338
    C            0.549206658607     1.086996860513     0.577812167088
    C            0.529684681232     1.064143165206     1.966352216654
    C           -0.000383817751    -0.043794418924     2.638872180438
    C           -0.506096749912    -1.134725991403     1.924150804264
    C           -0.487649957762    -1.126281132621     0.533918600795
    C            0.023472490962     0.009867074340    -1.605049988779
    H            1.010006716626     1.924670730253     0.060918396869
    H            0.939157169696     1.898232000332     2.526867010576
    H           -0.016329838013    -0.056702195705     3.724500745929
    H           -0.922565813139    -1.986668261186     2.451913400572
    H           -0.909452766627    -1.954300039267    -0.026026988077
    N           -0.004961372228    -1.161664282509    -2.288482253937
    N           -0.153357720945     1.151919486541    -2.259258752025
    H           -0.089255772756     1.216502406585    -3.269033246387
    H           -0.415406725532     1.994949358869    -1.761817706060
    H            0.766820085874    -1.804914727878    -2.134116841596
    H           -0.232919187362    -1.104927053954    -3.278355100069

  Dipole Moment: [D]
     X:     0.4707      Y:     0.6573      Z:    -5.5677     Total:     5.6261

  Mulliken Charges: (a.u.)
   Center  Symbol    Alpha    Beta     Spin     Total
       1     C     2.95334  2.95334  0.00000  0.09332
       2     C     3.08453  3.08453  0.00000 -0.16905
       3     C     3.06273  3.06273  0.00000 -0.12545
       4     C     3.05016  3.05016  0.00000 -0.10033
       5     C     3.06263  3.06263  0.00000 -0.12527
       6     C     3.07343  3.07343  0.00000 -0.14687
       7     C     2.74936  2.74936  0.00000  0.50129
       8     H     0.41519  0.41519  0.00000  0.16962
       9     H     0.40514  0.40514  0.00000  0.18973
      10     H     0.40294  0.40294  0.00000  0.19411
      11     H     0.40470  0.40470  0.00000  0.19060
      12     H     0.40612  0.40612  0.00000  0.18775
      13     N     3.85780  3.85780  0.00000 -0.71560
      14     N     3.85174  3.85174  0.00000 -0.70349
      15     H     0.30496  0.30496  0.00000  0.39009
      16     H     0.29925  0.29925  0.00000  0.40150
      17     H     0.30204  0.30204  0.00000  0.39593
      18     H     0.31394  0.31394  0.00000  0.37212

   Total alpha = 32.00000, Total beta = 32.00000, Total charge =  1.00000

*** Psi4 exiting successfully. Buy a developer a beer!
