                               Psi4 1.2.1 release

  ==> Input File <==

--------------------------------------------------------------------------
set_num_threads(1)
set_memory('5348 MB')

set { scf_mem_safety_factor 0.7 }

set { reference rks }
set { basis cc-pVDZ }

molecule MOL {
    0 1
    noreorient
    nocom
    symmetry c1
    O    1.141000   0.017000   0.083000
    C    2.558000   0.086000  -0.005000
    C    3.192000  -0.789000   1.067000
    O    3.393450  -2.105326   0.566927
    H    0.789000   0.590000  -0.620000
    H    2.874000   1.128000   0.115000
    H    2.871000  -0.243000  -1.001000
    H    2.549361  -0.835719   1.951743
    H    4.156990  -0.373250   1.378166
    H    3.797923  -2.618066   1.288304
}

set optking { frozen_dihedral = (" 1 2 3 4 ") }

energy, wfn = energy('B3LYP-D3', return_wfn=True)

import os
os.chdir(os.environ['HTMD_PSI4_WORKDIR'])

oeprop(wfn, 'DIPOLE', 'QUADRUPOLE', 'MULLIKEN_CHARGES')

with open('psi4out.xyz', 'w') as f:
    f.write('10 ' )
    f.write('%.12f\n' % energy)
    f.write(MOL.save_string_xyz())
--------------------------------------------------------------------------

    Molecular point group: c1

    Geometry (in Angstrom), charge = 0, multiplicity = 1:

       Center              X                  Y                   Z               Mass
    ------------   -----------------  -----------------  -----------------  -----------------
         O            1.141000000000     0.017000000000     0.083000000000    15.994914619560
         C            2.558000000000     0.086000000000    -0.005000000000    12.000000000000
         C            3.192000000000    -0.789000000000     1.067000000000    12.000000000000
         O            3.393450000000    -2.105326000000     0.566927000000    15.994914619560
         H            0.789000000000     0.590000000000    -0.620000000000     1.007825032070
         H            2.874000000000     1.128000000000     0.115000000000     1.007825032070
         H            2.871000000000    -0.243000000000    -1.001000000000     1.007825032070
         H            2.549361000000    -0.835719000000     1.951743000000     1.007825032070
         H            4.156990000000    -0.373250000000     1.378166000000     1.007825032070
         H            3.797923000000    -2.618066000000     1.288304000000     1.007825032070

  Charge       = 0
  Multiplicity = 1
  Basis Set: CC-PVDZ
    Blend: CC-PVDZ
  Basis Set: (CC-PVDZ AUX)
    Blend: CC-PVDZ-JKFIT

    Orbital Energies [Eh]
    ---------------------

    Doubly Occupied:

       1A    -19.126329     2A    -19.126282     3A    -10.226445
       4A    -10.226249     5A     -1.016623     6A     -1.002137
       7A     -0.733314     8A     -0.603019     9A     -0.513275
      10A     -0.512955    11A     -0.424139    12A     -0.422502
      13A     -0.408674    14A     -0.344141    15A     -0.318577
      16A     -0.266931    17A     -0.254396

  @DF-RKS Final Energy:  -230.25553109625332

   => Energetics <=

    Nuclear Repulsion Energy =            130.8451302258351063
    One-Electron Energy =                -573.5168108275439636
    Two-Electron Energy =                 236.9593726051981832
    DFT Exchange-Correlation Energy =     -24.5389007397426511
    Empirical Dispersion Energy =          -0.0043223600000000
    VV10 Nonlocal Energy =                  0.0000000000000000
    Total Energy =                       -230.2555310962533497

  Dipole Moment: [D]
     X:     1.0489      Y:     1.1993      Z:     0.3563     Total:     1.6326

  Mulliken Charges: (a.u.)
   Center  Symbol    Alpha    Beta     Spin     Total
       1     O     4.13799  4.13799  0.00000 -0.27598
       2     C     2.93139  2.93139  0.00000  0.13723
       3     C     2.93153  2.93153  0.00000  0.13695
       4     O     4.13821  4.13821  0.00000 -0.27642
       5     H     0.43099  0.43099  0.00000  0.13801
       6     H     0.50420  0.50420  0.00000 -0.00841
       7     H     0.49537  0.49537  0.00000  0.00926
       8     H     0.49528  0.49528  0.00000  0.00943
       9     H     0.50410  0.50410  0.00000 -0.00820
      10     H     0.43094  0.43094  0.00000  0.13812

   Total alpha = 17.00000, Total beta = 17.00000, Total charge = -0.00000

*** Psi4 exiting successfully. Buy a developer a beer!
