                               Psi4 1.2.1 release

  ==> Input File <==

--------------------------------------------------------------------------
set_num_threads(4)
set_memory('3000 MB')

set { scf_mem_safety_factor 0.7 }

set { reference rks }
set { basis 6-31G* }

molecule MOL {
    1 1
    noreorient
    nocom
    symmetry c1
    C   -0.000000  -0.000000  -0.177864
    C    0.036678   1.219374   0.524165
    C    0.031765   1.213120   1.915444
    C    0.000000   0.000000   2.610107
    C   -0.031765  -1.213120   1.915444
    C   -0.036678  -1.219375   0.524165
    C   -0.000000   0.000000  -1.644734
    H    0.018170   2.164705  -0.010854
    H    0.042402   2.152895   2.457886
    H    0.000000   0.000000   3.695756
    H   -0.042402  -2.152895   2.457886
    H   -0.018170  -2.164705  -0.010853
    N   -0.712590  -0.905950  -2.308461
    N    0.712590   0.905950  -2.308460
    H    0.673432   1.006470  -3.315997
    H    1.377190   1.485970  -1.813316
    H   -0.332251  -1.334288  -3.142219
    H   -1.609514  -1.246906  -1.982819
}

set optking { frozen_dihedral = (" 1 7 13 17 ") }

set optking { dynamic_level = 1
 geom_maxiter = 250
 print_trajectory_xyz_file = True }

energy, wfn = optimize('B3LYP-D3', return_wfn=True)

import os
os.chdir(os.environ['HTMD_PSI4_WORKDIR'])

oeprop(wfn, 'DIPOLE', 'QUADRUPOLE', 'MULLIKEN_CHARGES')

with open('psi4out.xyz', 'w') as f:
    f.write('18 ' )
    f.write('%.12f\n' % energy)
    f.write(MOL.save_string_xyz())
--------------------------------------------------------------------------

    Molecular point group: c1
  Charge       = 1
  Multiplicity = 1
  Basis Set: 6-31G*
    Blend: 6-31G*
  Basis Set: (6-31G* AUX)
    Blend: CC-PVDZ-JKFIT
  @DF-RKS Final Energy:  -381.46136170045850
    Total Energy =                       -381.4613617004584398
    Molecular point group: c1
  Basis Set: 6-31G*
    Blend: 6-31G*
  Basis Set: (6-31G* AUX)
    Blend: CC-PVDZ-JKFIT
  Basis Set: 6-31G*
    Blend: 6-31G*
  Basis Set: (6-31G* AUX)
    Blend: CC-PVDZ-JKFIT
  @DF-RKS Final Energy:  -381.46451313213686
    Total Energy =                       -381.4645131321368581
  Basis Set: 6-31G*
    Blend: 6-31G*
  Basis Set: (6-31G* AUX)
    Blend: CC-PVDZ-JKFIT
  Basis Set: 6-31G*
    Blend: 6-31G*
  @DF-RKS Final Energy:  -381.46627196620091
    Total Energy =                       -381.4662719662009636
  @DF-RKS Final Energy:  -381.46649281737308
    Total Energy =                       -381.4664928173730800
  @DF-RKS Final Energy:  -381.46651213033272
    Total Energy =                       -381.4665121303326600
  Basis Set: (6-31G* AUX)
    Blend: CC-PVDZ-JKFIT
  Basis Set: 6-31G*
    Blend: 6-31G*
  Basis Set: (6-31G* AUX)
    Blend: CC-PVDZ-JKFIT
  @DF-RKS Final Energy:  -381.46651467560304
    Total Energy =                       -381.4665146756030367
  Basis Set: 6-31G*
    Blend: 6-31G*
  Basis Set: (6-31G* AUX)
    Blend: CC-PVDZ-JKFIT
  Charge       = 1
  Multiplicity = 1
  Basis Set: 6-31G*
    Blend: 6-31G*
  Basis Set: (6-31G* AUX)
    Blend: CC-PVDZ-JKFIT

    Orbital Energies [Eh]
    ---------------------

    Doubly Occupied:

       1A    -14.569066     2A    -14.560505     3A    -10.496084
       4A    -10.375082     5A    -10.360138     6A    -10.359036
       7A    -10.347247     8A    -10.343458     9A    -10.343288
      10A     -1.181414    11A     -1.088619    12A     -1.016830
      13A     -0.928094    14A     -0.905277    15A     -0.844005
      16A     -0.784437    17A     -0.771903    18A     -0.740910
      19A     -0.732171    20A     -0.685445    21A     -0.672005
      22A     -0.629602    23A     -0.615605    24A     -0.585695
      25A     -0.581593    26A     -0.571121    27A     -0.521375
      28A     -0.508541    29A     -0.500726    30A     -0.471345
      31A     -0.415692    32A     -0.408808

  @DF-RKS Final Energy:  -381.46651484766790

   => Energetics <=

    Nuclear Repulsion Energy =            416.7506272191080825
    One-Electron Energy =               -1328.6581610373259537
    Two-Electron Energy =                 574.8557914331859138
    DFT Exchange-Correlation Energy =     -44.4028073726359480
    Empirical Dispersion Energy =          -0.0119650900000000
    VV10 Nonlocal Energy =                  0.0000000000000000
    Total Energy =                       -381.4665148476678951
    Molecular point group: c1
  Basis Set: 6-31G*
    Blend: 6-31G*
  Basis Set: (6-31G* AUX)
    Blend: CC-PVDZ-JKFIT

  -Total Gradient:
     Atom            X                  Y                   Z
    ------   -----------------  -----------------  -----------------
       1        0.004517503365    -0.003469519660    -0.000031399280
       2        0.000011872769     0.000007004073     0.000012058363
       3       -0.000009401593    -0.000005938354    -0.000009451951
       4        0.000002974959     0.000006008039     0.000005824513
       5       -0.000003058599    -0.000002410200    -0.000011308657
       6        0.000020278839     0.000015453303    -0.000011805155
       7       -0.005721719562     0.002988498085     0.001759136918
       8        0.000000174178    -0.000000252968    -0.000007898176
       9       -0.000000741750     0.000000611656    -0.000004500394
      10        0.000000305809    -0.000000439825    -0.000002755535
      11       -0.000003679754     0.000000045419    -0.000005680207
      12       -0.000012840540    -0.000002775891    -0.000008752875
      13       -0.002100282042     0.006479946026    -0.006211747775
      14       -0.000031116280     0.000044630129    -0.000000874257
      15        0.000000597141     0.000001897259     0.000002595070
      16       -0.000008080521    -0.000001813097     0.000004574121
      17        0.003336678728    -0.006048448436     0.004507972200
      18        0.000003638706    -0.000010258931    -0.000015619789

  **** Optimization is complete! (in 7 steps) ****
    Final optimized geometry and variables:
    Molecular point group: c1

    Geometry (in Angstrom), charge = 1, multiplicity = 1:

    C           -0.032735718048     0.021858477500    -0.184297641068
    C            0.045432614639     1.234495731226     0.529753442543
    C            0.062186793695     1.217472706104     1.919660276528
    C            0.005296551113    -0.001443462886     2.604198995584
    C           -0.073643467705    -1.207618953033     1.900731459502
    C           -0.099893195426    -1.201952698073     0.510247870727
    C           -0.029396430638     0.028159911597    -1.645991602151
    H            0.042583115405     2.183952248836     0.001521308170
    H            0.106502236619     2.151290152833     2.470545810931
    H            0.020544446417    -0.011000632121     3.689754665986
    H           -0.106007972690    -2.150795808082     2.436290411186
    H           -0.120063220406    -2.143638475170    -0.030643991111
    N           -0.723304531317    -0.879647245790    -2.347434702996
    N            0.706644924269     0.915007693893    -2.308296708233
    H            0.639863334824     1.025031788394    -3.313886954187
    H            1.371367668612     1.498993865021    -1.817512572304
    H           -0.338306933197    -1.295380709912    -3.188943842556
    H           -1.368213216165    -1.473539590337    -1.840420226552

  Dipole Moment: [D]
     X:     0.6457      Y:    -0.2741      Z:    -5.1537     Total:     5.2012

  Mulliken Charges: (a.u.)
   Center  Symbol    Alpha    Beta     Spin     Total
       1     C     2.95195  2.95195  0.00000  0.09610
       2     C     3.08166  3.08166  0.00000 -0.16333
       3     C     3.06228  3.06228  0.00000 -0.12456
       4     C     3.05070  3.05070  0.00000 -0.10140
       5     C     3.06234  3.06234  0.00000 -0.12468
       6     C     3.08043  3.08043  0.00000 -0.16086
       7     C     2.73638  2.73638  0.00000  0.52724
       8     H     0.41303  0.41303  0.00000  0.17395
       9     H     0.40451  0.40451  0.00000  0.19098
      10     H     0.40277  0.40277  0.00000  0.19445
      11     H     0.40469  0.40469  0.00000  0.19062
      12     H     0.41644  0.41644  0.00000  0.16711
      13     N     3.86328  3.86328  0.00000 -0.72656
      14     N     3.85677  3.85677  0.00000 -0.71355
      15     H     0.30333  0.30333  0.00000  0.39334
      16     H     0.30035  0.30035  0.00000  0.39930
      17     H     0.30525  0.30525  0.00000  0.38951
      18     H     0.30382  0.30382  0.00000  0.39235

   Total alpha = 32.00000, Total beta = 32.00000, Total charge =  1.00000

*** Psi4 exiting successfully. Buy a developer a beer!
