                               Psi4 1.2.1 release

  ==> Input File <==

--------------------------------------------------------------------------
set_num_threads(1)
set_memory('5348 MB')

set { scf_mem_safety_factor 0.7 }

set { reference rks }
set { basis cc-pVDZ }

molecule MOL {
    0 1
    noreorient
    nocom
    symmetry c1
    O    1.141000   0.017000   0.083000
    C    2.558000   0.086000  -0.005000
    C    3.192000  -0.789000   1.067000
    O    4.446283  -1.284290   0.614418
    H    0.789000   0.590000  -0.620000
    H    2.874000   1.128000   0.115000
    H    2.871000  -0.243000  -1.001000
    H    2.538327  -1.633364   1.307206
    H    3.345579  -0.214617   1.987530
    H    4.804409  -1.833361   1.333551
}

set optking { frozen_dihedral = (" 1 2 3 4 ") }

energy, wfn = energy('B3LYP-D3', return_wfn=True)

import os
os.chdir(os.environ['HTMD_PSI4_WORKDIR'])

oeprop(wfn, 'DIPOLE', 'QUADRUPOLE', 'MULLIKEN_CHARGES')

with open('psi4out.xyz', 'w') as f:
    f.write('10 ' )
    f.write('%.12f\n' % energy)
    f.write(MOL.save_string_xyz())
--------------------------------------------------------------------------

    Molecular point group: c1

    Geometry (in Angstrom), charge = 0, multiplicity = 1:

       Center              X                  Y                   Z               Mass
    ------------   -----------------  -----------------  -----------------  -----------------
         O            1.141000000000     0.017000000000     0.083000000000    15.994914619560
         C            2.558000000000     0.086000000000    -0.005000000000    12.000000000000
         C            3.192000000000    -0.789000000000     1.067000000000    12.000000000000
         O            4.446283000000    -1.284290000000     0.614418000000    15.994914619560
         H            0.789000000000     0.590000000000    -0.620000000000     1.007825032070
         H            2.874000000000     1.128000000000     0.115000000000     1.007825032070
         H            2.871000000000    -0.243000000000    -1.001000000000     1.007825032070
         H            2.538327000000    -1.633364000000     1.307206000000     1.007825032070
         H            3.345579000000    -0.214617000000     1.987530000000     1.007825032070
         H            4.804409000000    -1.833361000000     1.333551000000     1.007825032070

  Charge       = 0
  Multiplicity = 1
  Basis Set: CC-PVDZ
    Blend: CC-PVDZ
  Basis Set: (CC-PVDZ AUX)
    Blend: CC-PVDZ-JKFIT

    Orbital Energies [Eh]
    ---------------------

    Doubly Occupied:

       1A    -19.130742     2A    -19.130694     3A    -10.225754
       4A    -10.225560     5A     -1.018364     6A     -1.007590
       7A     -0.732415     8A     -0.603445     9A     -0.524808
      10A     -0.493062    11A     -0.457554    12A     -0.411856
      13A     -0.398059    14A     -0.349060    15A     -0.319833
      16A     -0.264564    17A     -0.260822

  @DF-RKS Final Energy:  -230.25517870483708

   => Energetics <=

    Nuclear Repulsion Energy =            129.6181405258193422
    One-Electron Energy =                -571.0046071675322992
    Two-Electron Energy =                 235.6760160154983907
    DFT Exchange-Correlation Energy =     -24.5403980386225129
    Empirical Dispersion Energy =          -0.0043300400000000
    VV10 Nonlocal Energy =                  0.0000000000000000
    Total Energy =                       -230.2551787048370784

  Dipole Moment: [D]
     X:     0.1372      Y:     0.4877      Z:     0.3149     Total:     0.5965

  Mulliken Charges: (a.u.)
   Center  Symbol    Alpha    Beta     Spin     Total
       1     O     4.14055  4.14055  0.00000 -0.28110
       2     C     2.93531  2.93531  0.00000  0.12937
       3     C     2.93543  2.93543  0.00000  0.12914
       4     O     4.14077  4.14077  0.00000 -0.28154
       5     H     0.42846  0.42846  0.00000  0.14308
       6     H     0.49949  0.49949  0.00000  0.00101
       7     H     0.49614  0.49614  0.00000  0.00772
       8     H     0.49604  0.49604  0.00000  0.00793
       9     H     0.49939  0.49939  0.00000  0.00121
      10     H     0.42841  0.42841  0.00000  0.14319

   Total alpha = 17.00000, Total beta = 17.00000, Total charge =  0.00000

*** Psi4 exiting successfully. Buy a developer a beer!
