                               Psi4 1.2.1 release

  ==> Input File <==

--------------------------------------------------------------------------
set_num_threads(4)
set_memory('3000 MB')

set { scf_mem_safety_factor 0.7 }

set { reference rks }
set { basis 6-31G* }

molecule MOL {
    1 1
    noreorient
    nocom
    symmetry c1
    C   -0.000000  -0.000000  -0.177864
    C    0.036678   1.219374   0.524165
    C    0.031765   1.213120   1.915444
    C    0.000000   0.000000   2.610107
    C   -0.031765  -1.213120   1.915444
    C   -0.036678  -1.219375   0.524165
    C   -0.000000   0.000000  -1.644734
    H    0.018170   2.164705  -0.010854
    H    0.042402   2.152895   2.457886
    H    0.000000   0.000000   3.695756
    H   -0.042402  -2.152895   2.457886
    H   -0.018170  -2.164705  -0.010853
    N   -0.712590  -0.905950  -2.308461
    N    0.712590   0.905950  -2.308460
    H    0.673432   1.006470  -3.315997
    H    1.377190   1.485970  -1.813316
    H   -1.253218  -1.593277  -1.799947
    H   -0.798094  -0.906843  -3.318141
}

set optking { frozen_dihedral = (" 1 7 13 17 ") }

set optking { dynamic_level = 1
 geom_maxiter = 250
 print_trajectory_xyz_file = True }

energy, wfn = optimize('B3LYP-D3', return_wfn=True)

import os
os.chdir(os.environ['HTMD_PSI4_WORKDIR'])

oeprop(wfn, 'DIPOLE', 'QUADRUPOLE', 'MULLIKEN_CHARGES')

with open('psi4out.xyz', 'w') as f:
    f.write('18 ' )
    f.write('%.12f\n' % energy)
    f.write(MOL.save_string_xyz())
--------------------------------------------------------------------------

    Molecular point group: c1
  Charge       = 1
  Multiplicity = 1
  Basis Set: 6-31G*
    Blend: 6-31G*
  Basis Set: (6-31G* AUX)
    Blend: CC-PVDZ-JKFIT
  @DF-RKS Final Energy:  -381.46931012226457
    Total Energy =                       -381.4693101222646305
    Molecular point group: c1
  Basis Set: 6-31G*
    Blend: 6-31G*
  Basis Set: (6-31G* AUX)
    Blend: CC-PVDZ-JKFIT
  Basis Set: 6-31G*
    Blend: 6-31G*
  Basis Set: (6-31G* AUX)
    Blend: CC-PVDZ-JKFIT
  @DF-RKS Final Energy:  -381.46986747697821
    Total Energy =                       -381.4698674769781519
  Basis Set: 6-31G*
    Blend: 6-31G*
  Basis Set: (6-31G* AUX)
    Blend: CC-PVDZ-JKFIT
  Basis Set: 6-31G*
    Blend: 6-31G*
  @DF-RKS Final Energy:  -381.47008790779313
    Total Energy =                       -381.4700879077931859
  @DF-RKS Final Energy:  -381.47012833293331
    Total Energy =                       -381.4701283329333137
  Basis Set: (6-31G* AUX)
    Blend: CC-PVDZ-JKFIT
  Basis Set: 6-31G*
    Blend: 6-31G*
  Basis Set: (6-31G* AUX)
    Blend: CC-PVDZ-JKFIT
  @DF-RKS Final Energy:  -381.47013016990144
    Total Energy =                       -381.4701301699014380
  Basis Set: 6-31G*
    Blend: 6-31G*
  Basis Set: (6-31G* AUX)
    Blend: CC-PVDZ-JKFIT
  Charge       = 1
  Multiplicity = 1
  Basis Set: 6-31G*
    Blend: 6-31G*
  Basis Set: (6-31G* AUX)
    Blend: CC-PVDZ-JKFIT

    Orbital Energies [Eh]
    ---------------------

    Doubly Occupied:

       1A    -14.568431     2A    -14.568091     3A    -10.497612
       4A    -10.373681     5A    -10.356682     6A    -10.356201
       7A    -10.342827     8A    -10.340665     9A    -10.340476
      10A     -1.184206    11A     -1.092390    12A     -1.014484
      13A     -0.926674    14A     -0.902429    15A     -0.845759
      16A     -0.786224    17A     -0.773416    18A     -0.742405
      19A     -0.733212    20A     -0.687493    21A     -0.669165
      22A     -0.625721    23A     -0.618943    24A     -0.587417
      25A     -0.579135    26A     -0.573543    27A     -0.518547
      28A     -0.505658    29A     -0.498372    30A     -0.472623
      31A     -0.411601    32A     -0.405853

  @DF-RKS Final Energy:  -381.47013059399001

   => Energetics <=

    Nuclear Repulsion Energy =            416.9069133162713570
    One-Electron Energy =               -1329.0063838280236723
    Two-Electron Energy =                 575.0471460015990033
    DFT Exchange-Correlation Energy =     -44.4058891638366546
    Empirical Dispersion Energy =          -0.0119169200000000
    VV10 Nonlocal Energy =                  0.0000000000000000
    Total Energy =                       -381.4701305939899498
    Molecular point group: c1
  Basis Set: 6-31G*
    Blend: 6-31G*
  Basis Set: (6-31G* AUX)
    Blend: CC-PVDZ-JKFIT

  -Total Gradient:
     Atom            X                  Y                   Z
    ------   -----------------  -----------------  -----------------
       1       -0.001260356187     0.001124675924     0.000067282630
       2        0.000002071536    -0.000009324698    -0.000028419071
       3       -0.000007417993    -0.000004466538     0.000006641938
       4        0.000002304638    -0.000012508886    -0.000002261301
       5       -0.000004806646     0.000014102676     0.000023701189
       6        0.000015163004    -0.000015882955    -0.000028544471
       7        0.002659446538    -0.002285400331    -0.000078648093
       8       -0.000000701932    -0.000000709300    -0.000007087366
       9       -0.000001491156     0.000000805241    -0.000005509155
      10        0.000002188250    -0.000004103778    -0.000001475457
      11        0.000000964848    -0.000001510112    -0.000000156836
      12       -0.000011777277     0.000002609487    -0.000002703843
      13       -0.003213330632     0.002769693101     0.000010349168
      14       -0.000022373093     0.000005469360     0.000026701359
      15        0.000007030749    -0.000001147951    -0.000004774200
      16        0.000009539782     0.000000998378     0.000004006929
      17        0.001825795479    -0.001578557327     0.000006981345
      18       -0.000007633895    -0.000008820731    -0.000003574841

  **** Optimization is complete! (in 6 steps) ****
    Final optimized geometry and variables:
    Molecular point group: c1

    Geometry (in Angstrom), charge = 1, multiplicity = 1:

    C            0.001912590587    -0.001276228838    -0.178068343743
    C            0.037131327853     1.217616349633     0.524023446317
    C            0.031575098037     1.210555178005     1.915553250587
    C            0.003044542061    -0.002538759377     2.610021467145
    C           -0.025399596182    -1.215377816236     1.914921332007
    C           -0.030788186069    -1.220588602804     0.523567160164
    C           -0.002316734133     0.000805180050    -1.646258625299
    H            0.016606337056     2.163219819446    -0.010344089051
    H            0.039576697815     2.150342179520     2.458043820259
    H            0.002873197902    -0.002895871780     3.695652120559
    H           -0.033356625471    -2.155506951158     2.456793182607
    H           -0.009458404893    -2.166996137017    -0.010088449751
    N           -0.753342126815    -0.873116530149    -2.309561798127
    N            0.710648122933     0.907034557104    -2.308705086792
    H            0.666273627498     1.015028694826    -3.315298527084
    H            1.371347384724     1.489643237311    -1.811568667682
    H           -1.320804953503    -1.538280867559    -1.800754750537
    H           -0.706212299401    -0.985348430977    -3.315701441579

  Dipole Moment: [D]
     X:     0.1257      Y:    -0.0998      Z:    -5.7252     Total:     5.7275

  Mulliken Charges: (a.u.)
   Center  Symbol    Alpha    Beta     Spin     Total
       1     C     2.95486  2.95486  0.00000  0.09028
       2     C     3.08163  3.08163  0.00000 -0.16327
       3     C     3.06243  3.06243  0.00000 -0.12485
       4     C     3.05159  3.05159  0.00000 -0.10317
       5     C     3.06241  3.06241  0.00000 -0.12482
       6     C     3.08351  3.08351  0.00000 -0.16703
       7     C     2.72339  2.72339  0.00000  0.55322
       8     H     0.41413  0.41413  0.00000  0.17174
       9     H     0.40539  0.40539  0.00000  0.18923
      10     H     0.40391  0.40391  0.00000  0.19219
      11     H     0.40546  0.40546  0.00000  0.18909
      12     H     0.41542  0.41542  0.00000  0.16917
      13     N     3.86142  3.86142  0.00000 -0.72284
      14     N     3.86390  3.86390  0.00000 -0.72779
      15     H     0.30554  0.30554  0.00000  0.38892
      16     H     0.29955  0.29955  0.00000  0.40091
      17     H     0.29964  0.29964  0.00000  0.40073
      18     H     0.30585  0.30585  0.00000  0.38831

   Total alpha = 32.00000, Total beta = 32.00000, Total charge =  1.00000

*** Psi4 exiting successfully. Buy a developer a beer!
