                               Psi4 1.2.1 release

  ==> Input File <==

--------------------------------------------------------------------------
set_num_threads(4)
set_memory('3000 MB')

set { scf_mem_safety_factor 0.7 }

set { reference rks }
set { basis 6-31G* }

molecule MOL {
    1 1
    noreorient
    nocom
    symmetry c1
    C   -0.000000  -0.000000  -0.177864
    C    0.036678   1.219374   0.524165
    C    0.031765   1.213120   1.915444
    C    0.000000   0.000000   2.610107
    C   -0.031765  -1.213120   1.915444
    C   -0.036678  -1.219375   0.524165
    C   -0.000000   0.000000  -1.644734
    H    0.018170   2.164705  -0.010854
    H    0.042402   2.152895   2.457886
    H    0.000000   0.000000   3.695756
    H   -0.042402  -2.152895   2.457886
    H   -0.018170  -2.164705  -0.010853
    N    1.094470   0.361476  -2.308460
    N   -1.094470  -0.361476  -2.308460
    H   -1.117362  -0.466896  -3.315997
    H   -1.968877  -0.477787  -1.813317
    H    1.968877   0.477787  -1.813316
    H    1.117362   0.466897  -3.315996
}

set optking { frozen_dihedral = (" 2 1 7 13 ") }

set optking { dynamic_level = 1
 geom_maxiter = 250
 print_trajectory_xyz_file = True }

energy, wfn = optimize('B3LYP-D3', return_wfn=True)

import os
os.chdir(os.environ['HTMD_PSI4_WORKDIR'])

oeprop(wfn, 'DIPOLE', 'QUADRUPOLE', 'MULLIKEN_CHARGES')

with open('psi4out.xyz', 'w') as f:
    f.write('18 ' )
    f.write('%.12f\n' % energy)
    f.write(MOL.save_string_xyz())
--------------------------------------------------------------------------

    Molecular point group: c1
  Charge       = 1
  Multiplicity = 1
  Basis Set: 6-31G*
    Blend: 6-31G*
  Basis Set: (6-31G* AUX)
    Blend: CC-PVDZ-JKFIT
  @DF-RKS Final Energy:  -381.46489284805415
    Total Energy =                       -381.4648928480540917
    Molecular point group: c1
  Basis Set: 6-31G*
    Blend: 6-31G*
  Basis Set: (6-31G* AUX)
    Blend: CC-PVDZ-JKFIT
  Basis Set: 6-31G*
    Blend: 6-31G*
  Basis Set: (6-31G* AUX)
    Blend: CC-PVDZ-JKFIT
  @DF-RKS Final Energy:  -381.46602997572205
    Total Energy =                       -381.4660299757220514
  Basis Set: 6-31G*
    Blend: 6-31G*
  Basis Set: (6-31G* AUX)
    Blend: CC-PVDZ-JKFIT
  Basis Set: 6-31G*
    Blend: 6-31G*
  @DF-RKS Final Energy:  -381.46624246125850
    Total Energy =                       -381.4662424612585028
  @DF-RKS Final Energy:  -381.46626266317355
    Total Energy =                       -381.4662626631734952
  Basis Set: (6-31G* AUX)
    Blend: CC-PVDZ-JKFIT
  Basis Set: 6-31G*
    Blend: 6-31G*
  Basis Set: (6-31G* AUX)
    Blend: CC-PVDZ-JKFIT
  @DF-RKS Final Energy:  -381.46626587962282
    Total Energy =                       -381.4662658796228811
  Basis Set: 6-31G*
    Blend: 6-31G*
  Basis Set: (6-31G* AUX)
    Blend: CC-PVDZ-JKFIT
  Charge       = 1
  Multiplicity = 1
  Basis Set: 6-31G*
    Blend: 6-31G*
  Basis Set: (6-31G* AUX)
    Blend: CC-PVDZ-JKFIT

    Orbital Energies [Eh]
    ---------------------

    Doubly Occupied:

       1A    -14.574160     2A    -14.574025     3A    -10.501168
       4A    -10.369175     5A    -10.350791     6A    -10.350394
       7A    -10.335811     8A    -10.335289     9A    -10.334993
      10A     -1.188680    11A     -1.097754    12A     -1.010144
      13A     -0.923102    14A     -0.896781    15A     -0.845170
      16A     -0.787403    17A     -0.767573    18A     -0.751815
      19A     -0.728926    20A     -0.690630    21A     -0.667549
      22A     -0.622553    23A     -0.617893    24A     -0.579035
      25A     -0.574480    26A     -0.568570    27A     -0.516471
      28A     -0.498684    29A     -0.493122    30A     -0.478039
      31A     -0.406475    32A     -0.400126

  @DF-RKS Final Energy:  -381.46626616051117

   => Energetics <=

    Nuclear Repulsion Energy =            416.4914008429238947
    One-Electron Energy =               -1328.2952084401174488
    Two-Electron Energy =                 574.7537350135301040
    DFT Exchange-Correlation Energy =     -44.4043976168477741
    Empirical Dispersion Energy =          -0.0117959600000000
    VV10 Nonlocal Energy =                  0.0000000000000000
    Total Energy =                       -381.4662661605111680
    Molecular point group: c1
  Basis Set: 6-31G*
    Blend: 6-31G*
  Basis Set: (6-31G* AUX)
    Blend: CC-PVDZ-JKFIT

  -Total Gradient:
     Atom            X                  Y                   Z
    ------   -----------------  -----------------  -----------------
       1        0.007417987908    -0.002119079189    -0.000191679401
       2       -0.004562311134     0.000070945927     0.000123042704
       3       -0.000013726039    -0.000002591203     0.000005596663
       4       -0.000007446278     0.000004777241    -0.000006711954
       5       -0.000001370156    -0.000001002394     0.000000765278
       6        0.000012786849    -0.000001884298     0.000003668787
       7       -0.004412544076     0.006669534703     0.000115406166
       8       -0.000007535858     0.000003685647    -0.000001548434
       9       -0.000000036813    -0.000001462122     0.000001830850
      10        0.000002869493    -0.000000488131     0.000002473391
      11       -0.000002493303    -0.000000081399     0.000004825281
      12        0.000001978379    -0.000005404484    -0.000005633697
      13        0.001569323692    -0.004588797250    -0.000053419183
      14        0.000029357529    -0.000025554395    -0.000013101766
      15        0.000000059112     0.000013319946     0.000006452635
      16       -0.000013238252    -0.000001270529     0.000012772869
      17       -0.000005409343    -0.000003784189    -0.000001648410
      18        0.000003248398    -0.000004564984    -0.000000004691

  **** Optimization is complete! (in 6 steps) ****
    Final optimized geometry and variables:
    Molecular point group: c1

    Geometry (in Angstrom), charge = 1, multiplicity = 1:

    C            0.055346923819     0.007317466353    -0.175718310988
    C            0.096728300736     1.224474871066     0.521748388422
    C            0.058888276869     1.211089967146     1.914861692039
    C           -0.022398792008    -0.003366458973     2.601354710658
    C           -0.079716808799    -1.211836337971     1.900782334624
    C           -0.061104103384    -1.213507367049     0.507704460641
    C            0.013074604730     0.017892243791    -1.653420394268
    H            0.148520442184     2.166173527325    -0.017568549256
    H            0.086116727787     2.147798288131     2.462233515747
    H           -0.046567006371    -0.008346431249     3.686706836506
    H           -0.143103649591    -2.152516444607     2.438328406340
    H           -0.106976317635    -2.149178693064    -0.042398255766
    N            1.086803834171     0.398665637704    -2.330511415447
    N           -1.076346811164    -0.416755381298    -2.270198868209
    H           -1.149287822435    -0.509422306586    -3.277848732546
    H           -1.893803124614    -0.651289913352    -1.720842033964
    H            1.923412201198     0.658707766159    -1.823017009239
    H            1.110413124506     0.484099566474    -3.341194775294

  Dipole Moment: [D]
     X:    -0.0655      Y:     0.0562      Z:    -6.2912     Total:     6.2918

  Mulliken Charges: (a.u.)
   Center  Symbol    Alpha    Beta     Spin     Total
       1     C     2.98579  2.98579  0.00000  0.02843
       2     C     3.07272  3.07272  0.00000 -0.14544
       3     C     3.06194  3.06194  0.00000 -0.12387
       4     C     3.05310  3.05310  0.00000 -0.10620
       5     C     3.06321  3.06321  0.00000 -0.12642
       6     C     3.07427  3.07427  0.00000 -0.14854
       7     C     2.74219  2.74219  0.00000  0.51562
       8     H     0.41336  0.41336  0.00000  0.17328
       9     H     0.40683  0.40683  0.00000  0.18634
      10     H     0.40598  0.40598  0.00000  0.18803
      11     H     0.40680  0.40680  0.00000  0.18639
      12     H     0.41343  0.41343  0.00000  0.17314
      13     N     3.84805  3.84805  0.00000 -0.69610
      14     N     3.84899  3.84899  0.00000 -0.69798
      15     H     0.30518  0.30518  0.00000  0.38964
      16     H     0.29659  0.29659  0.00000  0.40682
      17     H     0.29621  0.29621  0.00000  0.40759
      18     H     0.30536  0.30536  0.00000  0.38927

   Total alpha = 32.00000, Total beta = 32.00000, Total charge =  1.00000

*** Psi4 exiting successfully. Buy a developer a beer!
