                               Psi4 1.2.1 release

  ==> Input File <==

--------------------------------------------------------------------------
set_num_threads(1)
set_memory('5348 MB')

set { scf_mem_safety_factor 0.7 }

set { reference rks }
set { basis cc-pVDZ }

molecule MOL {
    0 1
    noreorient
    nocom
    symmetry c1
    O    1.014300  -0.002300   0.060500
    O    2.462400  -0.107500  -0.002400
    H    0.821200  -0.823600  -0.430600
    H    2.601683  -0.299596   0.944456
}

set optking { frozen_dihedral = (" 3 1 2 4 ") }

set optking { dynamic_level = 1
 geom_maxiter = 250
 print_trajectory_xyz_file = True }

energy, wfn = optimize('B3LYP-D3', return_wfn=True)

import os
os.chdir(os.environ['HTMD_PSI4_WORKDIR'])

oeprop(wfn, 'DIPOLE', 'QUADRUPOLE', 'MULLIKEN_CHARGES')

with open('psi4out.xyz', 'w') as f:
    f.write('4 ' )
    f.write('%.12f\n' % energy)
    f.write(MOL.save_string_xyz())
--------------------------------------------------------------------------

    Molecular point group: c1
  Charge       = 0
  Multiplicity = 1
  Basis Set: CC-PVDZ
    Blend: CC-PVDZ
  Basis Set: (CC-PVDZ AUX)
    Blend: CC-PVDZ-JKFIT
  @DF-RKS Final Energy:  -151.55007858453877
    Total Energy =                       -151.5500785845387668
    Molecular point group: c1
  Basis Set: CC-PVDZ
    Blend: CC-PVDZ
  Basis Set: (CC-PVDZ AUX)
    Blend: CC-PVDZ-JKFIT
  Basis Set: CC-PVDZ
    Blend: CC-PVDZ
  Basis Set: (CC-PVDZ AUX)
    Blend: CC-PVDZ-JKFIT
  @DF-RKS Final Energy:  -151.55066020060164
    Total Energy =                       -151.5506602006016408
  Basis Set: CC-PVDZ
    Blend: CC-PVDZ
  Basis Set: (CC-PVDZ AUX)
    Blend: CC-PVDZ-JKFIT
  Basis Set: CC-PVDZ
    Blend: CC-PVDZ
  @DF-RKS Final Energy:  -151.55106884576460
    Total Energy =                       -151.5510688457646324
  Basis Set: (CC-PVDZ AUX)
    Blend: CC-PVDZ-JKFIT
  Basis Set: CC-PVDZ
    Blend: CC-PVDZ
  Basis Set: (CC-PVDZ AUX)
    Blend: CC-PVDZ-JKFIT
  @DF-RKS Final Energy:  -151.55107638485700
    Total Energy =                       -151.5510763848570264
  Basis Set: CC-PVDZ
    Blend: CC-PVDZ
  Basis Set: (CC-PVDZ AUX)
    Blend: CC-PVDZ-JKFIT
  Charge       = 0
  Multiplicity = 1
  Basis Set: CC-PVDZ
    Blend: CC-PVDZ
  Basis Set: (CC-PVDZ AUX)
    Blend: CC-PVDZ-JKFIT

    Orbital Energies [Eh]
    ---------------------

    Doubly Occupied:

       1A    -19.187654     2A    -19.187614     3A     -1.109682
       4A     -0.889094     5A     -0.524202     6A     -0.479136
       7A     -0.410451     8A     -0.305970     9A     -0.272637

  @DF-RKS Final Energy:  -151.55107711255445

   => Energetics <=

    Nuclear Repulsion Energy =             36.7464409617348480
    One-Electron Energy =                -281.4777868572205648
    Two-Electron Energy =                 107.6426769164243211
    DFT Exchange-Correlation Energy =     -14.4620536234930359
    Empirical Dispersion Energy =          -0.0003545100000000
    VV10 Nonlocal Energy =                  0.0000000000000000
    Total Energy =                       -151.5510771125544522
    Molecular point group: c1
  Basis Set: CC-PVDZ
    Blend: CC-PVDZ
  Basis Set: (CC-PVDZ AUX)
    Blend: CC-PVDZ-JKFIT

  -Total Gradient:
     Atom            X                  Y                   Z
    ------   -----------------  -----------------  -----------------
       1        0.000024448458     0.000263574706    -0.000567444517
       2        0.000021350675     0.000599640901     0.000178943302
       3       -0.000001720467    -0.000290254571     0.000497775070
       4       -0.000043561375    -0.000563215267    -0.000113657706

  **** Optimization is complete! (in 5 steps) ****
    Final optimized geometry and variables:
    Molecular point group: c1

    Geometry (in Angstrom), charge = 0, multiplicity = 1:

    O            1.014171017390    -0.014175460674     0.042201803899
    O            2.462200126563    -0.101675746806     0.018583341508
    H            0.782761576286    -0.824682814022    -0.445661403614
    H            2.640450279761    -0.292461978497     0.956832258207

  Dipole Moment: [D]
     X:    -0.0919      Y:    -1.7313      Z:     0.7788     Total:     1.9006

  Mulliken Charges: (a.u.)
   Center  Symbol    Alpha    Beta     Spin     Total
       1     O     4.08927  4.08927  0.00000 -0.17855
       2     O     4.08927  4.08927  0.00000 -0.17855
       3     H     0.41073  0.41073  0.00000  0.17855
       4     H     0.41073  0.41073  0.00000  0.17855

   Total alpha =  9.00000, Total beta =  9.00000, Total charge =  0.00000

*** Psi4 exiting successfully. Buy a developer a beer!
