                               Psi4 1.2.1 release

  ==> Input File <==

--------------------------------------------------------------------------
set_num_threads(1)
set_memory('5348 MB')

set { scf_mem_safety_factor 0.7 }

set { reference rks }
set { basis cc-pVDZ }

molecule MOL {
    0 1
    noreorient
    nocom
    symmetry c1
    O    1.141000   0.017000   0.083000
    C    2.558000   0.086000  -0.005000
    C    3.192000  -0.789000   1.067000
    O    4.610000  -0.719000   0.979000
    H    0.789000   0.590000  -0.620000
    H    2.874000   1.128000   0.115000
    H    2.871000  -0.243000  -1.001000
    H    2.876000  -1.830000   0.947000
    H    2.879000  -0.459000   2.064000
    H    4.818338   0.093943   0.486450
}

set optking { frozen_dihedral = (" 2 3 4 10 ") }

energy, wfn = energy('B3LYP-D3', return_wfn=True)

import os
os.chdir(os.environ['HTMD_PSI4_WORKDIR'])

oeprop(wfn, 'DIPOLE', 'QUADRUPOLE', 'MULLIKEN_CHARGES')

with open('psi4out.xyz', 'w') as f:
    f.write('10 ' )
    f.write('%.12f\n' % energy)
    f.write(MOL.save_string_xyz())
--------------------------------------------------------------------------

    Molecular point group: c1

    Geometry (in Angstrom), charge = 0, multiplicity = 1:

       Center              X                  Y                   Z               Mass
    ------------   -----------------  -----------------  -----------------  -----------------
         O            1.141000000000     0.017000000000     0.083000000000    15.994914619560
         C            2.558000000000     0.086000000000    -0.005000000000    12.000000000000
         C            3.192000000000    -0.789000000000     1.067000000000    12.000000000000
         O            4.610000000000    -0.719000000000     0.979000000000    15.994914619560
         H            0.789000000000     0.590000000000    -0.620000000000     1.007825032070
         H            2.874000000000     1.128000000000     0.115000000000     1.007825032070
         H            2.871000000000    -0.243000000000    -1.001000000000     1.007825032070
         H            2.876000000000    -1.830000000000     0.947000000000     1.007825032070
         H            2.879000000000    -0.459000000000     2.064000000000     1.007825032070
         H            4.818338000000     0.093943000000     0.486450000000     1.007825032070

  Charge       = 0
  Multiplicity = 1
  Basis Set: CC-PVDZ
    Blend: CC-PVDZ
  Basis Set: (CC-PVDZ AUX)
    Blend: CC-PVDZ-JKFIT

    Orbital Energies [Eh]
    ---------------------

    Doubly Occupied:

       1A    -19.139119     2A    -19.133443     3A    -10.236593
       4A    -10.226861     5A     -1.025454     6A     -1.012330
       7A     -0.733458     8A     -0.625260     9A     -0.518360
      10A     -0.489410    11A     -0.472964    12A     -0.424196
      13A     -0.399135    14A     -0.354276    15A     -0.323838
      16A     -0.272880    17A     -0.266070

  @DF-RKS Final Energy:  -230.25630807442397

   => Energetics <=

    Nuclear Repulsion Energy =            130.1126801932145440
    One-Electron Energy =                -571.7979415221624322
    Two-Electron Energy =                 235.9719547950377887
    DFT Exchange-Correlation Energy =     -24.5383624305138781
    Empirical Dispersion Energy =          -0.0046391100000000
    VV10 Nonlocal Energy =                  0.0000000000000000
    Total Energy =                       -230.2563080744239699

  Dipole Moment: [D]
     X:    -0.3946      Y:     1.9541      Z:    -1.7670     Total:     2.6639

  Mulliken Charges: (a.u.)
   Center  Symbol    Alpha    Beta     Spin     Total
       1     O     4.13684  4.13684  0.00000 -0.27367
       2     C     2.95991  2.95991  0.00000  0.08017
       3     C     2.92028  2.92028  0.00000  0.15944
       4     O     4.13697  4.13697  0.00000 -0.27393
       5     H     0.42798  0.42798  0.00000  0.14404
       6     H     0.50257  0.50257  0.00000 -0.00515
       7     H     0.49840  0.49840  0.00000  0.00320
       8     H     0.48914  0.48914  0.00000  0.02172
       9     H     0.49500  0.49500  0.00000  0.01000
      10     H     0.43291  0.43291  0.00000  0.13418

   Total alpha = 17.00000, Total beta = 17.00000, Total charge =  0.00000

*** Psi4 exiting successfully. Buy a developer a beer!
