                               Psi4 1.2.1 release

  ==> Input File <==

--------------------------------------------------------------------------
set_num_threads(1)
set_memory('5348 MB')

set { scf_mem_safety_factor 0.7 }

set { reference rks }
set { basis cc-pVDZ }

molecule MOL {
    0 1
    noreorient
    nocom
    symmetry c1
    O    1.141000   0.017000   0.083000
    C    2.558000   0.086000  -0.005000
    C    3.192000  -0.789000   1.067000
    O    2.789893  -0.348057   2.358219
    H    0.789000   0.590000  -0.620000
    H    2.874000   1.128000   0.115000
    H    2.871000  -0.243000  -1.001000
    H    4.283537  -0.748071   0.997662
    H    2.889129  -1.833948   0.935734
    H    3.221344  -0.938129   3.000521
}

set optking { frozen_dihedral = (" 1 2 3 4 ") }

energy, wfn = energy('B3LYP-D3', return_wfn=True)

import os
os.chdir(os.environ['HTMD_PSI4_WORKDIR'])

oeprop(wfn, 'DIPOLE', 'QUADRUPOLE', 'MULLIKEN_CHARGES')

with open('psi4out.xyz', 'w') as f:
    f.write('10 ' )
    f.write('%.12f\n' % energy)
    f.write(MOL.save_string_xyz())
--------------------------------------------------------------------------

    Molecular point group: c1

    Geometry (in Angstrom), charge = 0, multiplicity = 1:

       Center              X                  Y                   Z               Mass
    ------------   -----------------  -----------------  -----------------  -----------------
         O            1.141000000000     0.017000000000     0.083000000000    15.994914619560
         C            2.558000000000     0.086000000000    -0.005000000000    12.000000000000
         C            3.192000000000    -0.789000000000     1.067000000000    12.000000000000
         O            2.789893000000    -0.348057000000     2.358219000000    15.994914619560
         H            0.789000000000     0.590000000000    -0.620000000000     1.007825032070
         H            2.874000000000     1.128000000000     0.115000000000     1.007825032070
         H            2.871000000000    -0.243000000000    -1.001000000000     1.007825032070
         H            4.283537000000    -0.748071000000     0.997662000000     1.007825032070
         H            2.889129000000    -1.833948000000     0.935734000000     1.007825032070
         H            3.221344000000    -0.938129000000     3.000521000000     1.007825032070

  Charge       = 0
  Multiplicity = 1
  Basis Set: CC-PVDZ
    Blend: CC-PVDZ
  Basis Set: (CC-PVDZ AUX)
    Blend: CC-PVDZ-JKFIT

    Orbital Energies [Eh]
    ---------------------

    Doubly Occupied:

       1A    -19.124739     2A    -19.124705     3A    -10.227408
       4A    -10.227221     5A     -1.016443     6A     -0.998874
       7A     -0.733848     8A     -0.602008     9A     -0.520241
      10A     -0.500839    11A     -0.438880    12A     -0.416239
      13A     -0.403665    14A     -0.340255    15A     -0.318367
      16A     -0.261213    17A     -0.257267

  @DF-RKS Final Energy:  -230.25570844357645

   => Energetics <=

    Nuclear Repulsion Energy =            131.8291859318044885
    One-Electron Energy =                -575.5146741219039086
    Two-Electron Energy =                 237.9701977123054917
    DFT Exchange-Correlation Energy =     -24.5360836957825121
    Empirical Dispersion Energy =          -0.0043342700000000
    VV10 Nonlocal Energy =                  0.0000000000000000
    Total Energy =                       -230.2557084435764239

  Dipole Moment: [D]
     X:     1.5622      Y:    -0.3201      Z:    -1.1875     Total:     1.9883

  Mulliken Charges: (a.u.)
   Center  Symbol    Alpha    Beta     Spin     Total
       1     O     4.13461  4.13461  0.00000 -0.26922
       2     C     2.93253  2.93253  0.00000  0.13493
       3     C     2.93265  2.93265  0.00000  0.13470
       4     O     4.13486  4.13486  0.00000 -0.26972
       5     H     0.43067  0.43067  0.00000  0.13865
       6     H     0.49846  0.49846  0.00000  0.00308
       7     H     0.50367  0.50367  0.00000 -0.00735
       8     H     0.50356  0.50356  0.00000 -0.00711
       9     H     0.49836  0.49836  0.00000  0.00328
      10     H     0.43062  0.43062  0.00000  0.13876

   Total alpha = 17.00000, Total beta = 17.00000, Total charge =  0.00000

*** Psi4 exiting successfully. Buy a developer a beer!
