                               Psi4 1.2.1 release

  ==> Input File <==

--------------------------------------------------------------------------
set_num_threads(4)
set_memory('3000 MB')

set { scf_mem_safety_factor 0.7 }

set { reference rks }
set { basis 6-31G* }

molecule MOL {
    1 1
    noreorient
    nocom
    symmetry c1
    C   -0.000000  -0.000000  -0.177864
    C    0.036678   1.219374   0.524165
    C    0.031765   1.213120   1.915444
    C    0.000000   0.000000   2.610107
    C   -0.031765  -1.213120   1.915444
    C   -0.036678  -1.219375   0.524165
    C   -0.000000   0.000000  -1.644734
    H    0.018170   2.164705  -0.010854
    H    0.042402   2.152895   2.457886
    H    0.000000   0.000000   3.695756
    H   -0.042402  -2.152895   2.457886
    H   -0.018170  -2.164705  -0.010853
    N    0.606060   0.980419  -2.308460
    N   -0.606060  -0.980418  -2.308461
    H   -0.555834  -1.075890  -3.315997
    H   -1.201131  -1.631576  -1.813317
    H    1.201131   1.631576  -1.813316
    H    0.555834   1.075891  -3.315996
}

set optking { frozen_dihedral = (" 2 1 7 13 ") }

set optking { dynamic_level = 1
 geom_maxiter = 250
 print_trajectory_xyz_file = True }

energy, wfn = optimize('B3LYP-D3', return_wfn=True)

import os
os.chdir(os.environ['HTMD_PSI4_WORKDIR'])

oeprop(wfn, 'DIPOLE', 'QUADRUPOLE', 'MULLIKEN_CHARGES')

with open('psi4out.xyz', 'w') as f:
    f.write('18 ' )
    f.write('%.12f\n' % energy)
    f.write(MOL.save_string_xyz())
--------------------------------------------------------------------------

    Molecular point group: c1
  Charge       = 1
  Multiplicity = 1
  Basis Set: 6-31G*
    Blend: 6-31G*
  Basis Set: (6-31G* AUX)
    Blend: CC-PVDZ-JKFIT
  @DF-RKS Final Energy:  -381.47019540808770
    Total Energy =                       -381.4701954080877044
    Molecular point group: c1
  Basis Set: 6-31G*
    Blend: 6-31G*
  Basis Set: (6-31G* AUX)
    Blend: CC-PVDZ-JKFIT
  Basis Set: 6-31G*
    Blend: 6-31G*
  Basis Set: (6-31G* AUX)
    Blend: CC-PVDZ-JKFIT
  @DF-RKS Final Energy:  -381.47025636390384
    Total Energy =                       -381.4702563639038999
  Basis Set: 6-31G*
    Blend: 6-31G*
  Basis Set: (6-31G* AUX)
    Blend: CC-PVDZ-JKFIT
  Basis Set: 6-31G*
    Blend: 6-31G*
  @DF-RKS Final Energy:  -381.47031260551739
    Total Energy =                       -381.4703126055174494
  Basis Set: (6-31G* AUX)
    Blend: CC-PVDZ-JKFIT
  Basis Set: 6-31G*
    Blend: 6-31G*
  Basis Set: (6-31G* AUX)
    Blend: CC-PVDZ-JKFIT
  @DF-RKS Final Energy:  -381.47031561338036
    Total Energy =                       -381.4703156133804214
  Basis Set: 6-31G*
    Blend: 6-31G*
  Basis Set: (6-31G* AUX)
    Blend: CC-PVDZ-JKFIT
  Charge       = 1
  Multiplicity = 1
  Basis Set: 6-31G*
    Blend: 6-31G*
  Basis Set: (6-31G* AUX)
    Blend: CC-PVDZ-JKFIT

    Orbital Energies [Eh]
    ---------------------

    Doubly Occupied:

       1A    -14.567274     2A    -14.567239     3A    -10.496990
       4A    -10.373938     5A    -10.357121     6A    -10.356939
       7A    -10.343972     8A    -10.341077     9A    -10.341021
      10A     -1.183395    11A     -1.091156    12A     -1.014862
      13A     -0.927117    14A     -0.902969    15A     -0.845733
      16A     -0.785611    17A     -0.774168    18A     -0.740049
      19A     -0.733856    20A     -0.688825    21A     -0.669161
      22A     -0.626800    23A     -0.615914    24A     -0.588978
      25A     -0.579731    26A     -0.573555    27A     -0.518382
      28A     -0.506470    29A     -0.498742    30A     -0.472409
      31A     -0.412283    32A     -0.406370

  @DF-RKS Final Energy:  -381.47031613337157

   => Energetics <=

    Nuclear Repulsion Energy =            416.9150824547417642
    One-Electron Energy =               -1329.0186223028499626
    Two-Electron Energy =                 575.0513133143953155
    DFT Exchange-Correlation Energy =     -44.4062279696587581
    Empirical Dispersion Energy =          -0.0118616300000000
    VV10 Nonlocal Energy =                  0.0000000000000000
    Total Energy =                       -381.4703161333716253
    Molecular point group: c1
  Basis Set: 6-31G*
    Blend: 6-31G*
  Basis Set: (6-31G* AUX)
    Blend: CC-PVDZ-JKFIT

  -Total Gradient:
     Atom            X                  Y                   Z
    ------   -----------------  -----------------  -----------------
       1       -0.002825113943     0.000483317409    -0.000044263522
       2        0.001516878684    -0.000080218664    -0.000017415882
       3       -0.000007990021    -0.000000730034     0.000005988249
       4       -0.000012222853    -0.000001587562     0.000011770680
       5        0.000000096591    -0.000007785508     0.000008226091
       6        0.000004676357     0.000002252664    -0.000019043809
       7        0.002668086211    -0.001210049443     0.000023799453
       8        0.000003959058     0.000005900191    -0.000006868749
       9        0.000001376694     0.000000148386    -0.000004985880
      10        0.000008198778    -0.000002042078    -0.000002103071
      11       -0.000001175848     0.000002924730    -0.000003516981
      12       -0.000000957875     0.000004019441     0.000011004102
      13       -0.001328724460     0.000775138333     0.000020459484
      14       -0.000018703698     0.000002775464     0.000007885719
      15        0.000002556936    -0.000006168799    -0.000001306463
      16        0.000019461313     0.000017737044    -0.000016235188
      17       -0.000019152665     0.000013231198     0.000005762623
      18       -0.000010587866     0.000003754387    -0.000002003543

  **** Optimization is complete! (in 5 steps) ****
    Final optimized geometry and variables:
    Molecular point group: c1

    Geometry (in Angstrom), charge = 1, multiplicity = 1:

    C           -0.015098053172     0.000255375131    -0.177507788308
    C            0.019794264401     1.219031258094     0.526779701799
    C            0.024547216026     1.213338964693     1.917649665029
    C            0.006897332035     0.000441929781     2.613296281959
    C           -0.016958186053    -1.212657040656     1.918576539864
    C           -0.027351397658    -1.218561837614     0.527609997874
    C           -0.001259815693    -0.002852538600    -1.643721676552
    H           -0.015993514912     2.166142880391    -0.004045090909
    H            0.031752043714     2.153540297193     2.459368176646
    H            0.013689449453     0.000736441544     3.698922569074
    H           -0.013735459542    -2.152687267415     2.460619079173
    H            0.007030435276    -2.165661170621    -0.003309734512
    N            0.614024923558     0.972033166840    -2.308672671673
    N           -0.622720922673    -0.969784588038    -2.314483961837
    H           -0.567493179224    -1.060997571600    -3.321978243747
    H           -1.241796680564    -1.605928170862    -1.829882794544
    H            1.233983926208     1.605035866772    -1.821031604927
    H            0.570687618818     1.058575004965    -3.317187444409

  Dipole Moment: [D]
     X:     0.0280      Y:    -0.0189      Z:    -5.6647     Total:     5.6648

  Mulliken Charges: (a.u.)
   Center  Symbol    Alpha    Beta     Spin     Total
       1     C     2.95187  2.95187  0.00000  0.09627
       2     C     3.08376  3.08376  0.00000 -0.16752
       3     C     3.06247  3.06247  0.00000 -0.12495
       4     C     3.05134  3.05134  0.00000 -0.10268
       5     C     3.06215  3.06215  0.00000 -0.12431
       6     C     3.08330  3.08330  0.00000 -0.16660
       7     C     2.71795  2.71795  0.00000  0.56409
       8     H     0.41467  0.41467  0.00000  0.17065
       9     H     0.40529  0.40529  0.00000  0.18941
      10     H     0.40358  0.40358  0.00000  0.19284
      11     H     0.40529  0.40529  0.00000  0.18943
      12     H     0.41487  0.41487  0.00000  0.17027
      13     N     3.86617  3.86617  0.00000 -0.73234
      14     N     3.86545  3.86545  0.00000 -0.73089
      15     H     0.30577  0.30577  0.00000  0.38846
      16     H     0.30002  0.30002  0.00000  0.39996
      17     H     0.30029  0.30029  0.00000  0.39943
      18     H     0.30576  0.30576  0.00000  0.38847

   Total alpha = 32.00000, Total beta = 32.00000, Total charge =  1.00000

*** Psi4 exiting successfully. Buy a developer a beer!
