                               Psi4 1.2.1 release

  ==> Input File <==

--------------------------------------------------------------------------
set_num_threads(1)
set_memory('5348 MB')

set { scf_mem_safety_factor 0.7 }

set { reference rks }
set { basis cc-pVDZ }

molecule MOL {
    0 1
    noreorient
    nocom
    symmetry c1
    O    1.141000   0.017000   0.083000
    C    2.558000   0.086000  -0.005000
    C    3.192000  -0.789000   1.067000
    O    3.186502  -0.110771   2.317338
    H    0.789000   0.590000  -0.620000
    H    2.874000   1.128000   0.115000
    H    2.871000  -0.243000  -1.001000
    H    4.223539  -1.036603   0.797637
    H    2.639474  -1.729921   1.168295
    H    3.600481  -0.711356   2.961391
}

set optking { frozen_dihedral = (" 1 2 3 4 ") }

energy, wfn = energy('B3LYP-D3', return_wfn=True)

import os
os.chdir(os.environ['HTMD_PSI4_WORKDIR'])

oeprop(wfn, 'DIPOLE', 'QUADRUPOLE', 'MULLIKEN_CHARGES')

with open('psi4out.xyz', 'w') as f:
    f.write('10 ' )
    f.write('%.12f\n' % energy)
    f.write(MOL.save_string_xyz())
--------------------------------------------------------------------------

    Molecular point group: c1

    Geometry (in Angstrom), charge = 0, multiplicity = 1:

       Center              X                  Y                   Z               Mass
    ------------   -----------------  -----------------  -----------------  -----------------
         O            1.141000000000     0.017000000000     0.083000000000    15.994914619560
         C            2.558000000000     0.086000000000    -0.005000000000    12.000000000000
         C            3.192000000000    -0.789000000000     1.067000000000    12.000000000000
         O            3.186502000000    -0.110771000000     2.317338000000    15.994914619560
         H            0.789000000000     0.590000000000    -0.620000000000     1.007825032070
         H            2.874000000000     1.128000000000     0.115000000000     1.007825032070
         H            2.871000000000    -0.243000000000    -1.001000000000     1.007825032070
         H            4.223539000000    -1.036603000000     0.797637000000     1.007825032070
         H            2.639474000000    -1.729921000000     1.168295000000     1.007825032070
         H            3.600481000000    -0.711356000000     2.961391000000     1.007825032070

  Charge       = 0
  Multiplicity = 1
  Basis Set: CC-PVDZ
    Blend: CC-PVDZ
  Basis Set: (CC-PVDZ AUX)
    Blend: CC-PVDZ-JKFIT

    Orbital Energies [Eh]
    ---------------------

    Doubly Occupied:

       1A    -19.125763     2A    -19.125725     3A    -10.226911
       4A    -10.226723     5A     -1.016517     6A     -1.001100
       7A     -0.733528     8A     -0.602796     9A     -0.515811
      10A     -0.509317    11A     -0.428118    12A     -0.420698
      13A     -0.407394    14A     -0.343208    15A     -0.318118
      16A     -0.265956    17A     -0.254912

  @DF-RKS Final Energy:  -230.25628227387958

   => Energetics <=

    Nuclear Repulsion Energy =            131.1501469738504113
    One-Electron Energy =                -574.1359463484570824
    Two-Electron Energy =                 237.2714758513980939
    DFT Exchange-Correlation Energy =     -24.5376042606709746
    Empirical Dispersion Energy =          -0.0043544900000000
    VV10 Nonlocal Energy =                  0.0000000000000000
    Total Energy =                       -230.2562822738795774

  Dipole Moment: [D]
     X:     1.2304      Y:    -0.5285      Z:    -1.1613     Total:     1.7726

  Mulliken Charges: (a.u.)
   Center  Symbol    Alpha    Beta     Spin     Total
       1     O     4.13697  4.13697  0.00000 -0.27394
       2     C     2.93144  2.93144  0.00000  0.13712
       3     C     2.93159  2.93159  0.00000  0.13682
       4     O     4.13722  4.13722  0.00000 -0.27445
       5     H     0.43093  0.43093  0.00000  0.13814
       6     H     0.49636  0.49636  0.00000  0.00728
       7     H     0.50424  0.50424  0.00000 -0.00848
       8     H     0.50411  0.50411  0.00000 -0.00823
       9     H     0.49626  0.49626  0.00000  0.00748
      10     H     0.43087  0.43087  0.00000  0.13825

   Total alpha = 17.00000, Total beta = 17.00000, Total charge = -0.00000

*** Psi4 exiting successfully. Buy a developer a beer!
