                               Psi4 1.2.1 release

  ==> Input File <==

--------------------------------------------------------------------------
set_num_threads(1)
set_memory('5348 MB')

set { scf_mem_safety_factor 0.7 }

set { reference rks }
set { basis cc-pVDZ }

molecule MOL {
    0 1
    noreorient
    nocom
    symmetry c1
    O    1.050400   0.042900  -0.048100
    C    2.474100   0.047400  -0.029000
    C    3.002600  -1.068900  -0.932000
    N    4.462700  -1.072400  -1.006800
    H    0.760400   0.728400   0.578000
    H    2.809900  -0.097900   1.003200
    H    2.817400   1.026800  -0.378600
    H    2.581000  -0.963300  -1.938400
    H    2.653800  -2.036400  -0.553400
    H    4.751399  -0.937354  -1.975251
    H    4.802581  -1.996506  -0.740792
}

set optking { frozen_dihedral = (" 2 3 4 10 ") }

energy, wfn = energy('B3LYP-D3', return_wfn=True)

import os
os.chdir(os.environ['HTMD_PSI4_WORKDIR'])

oeprop(wfn, 'DIPOLE', 'QUADRUPOLE', 'MULLIKEN_CHARGES')

with open('psi4out.xyz', 'w') as f:
    f.write('11 ' )
    f.write('%.12f\n' % energy)
    f.write(MOL.save_string_xyz())
--------------------------------------------------------------------------

    Molecular point group: c1

    Geometry (in Angstrom), charge = 0, multiplicity = 1:

       Center              X                  Y                   Z               Mass
    ------------   -----------------  -----------------  -----------------  -----------------
         O            1.050400000000     0.042900000000    -0.048100000000    15.994914619560
         C            2.474100000000     0.047400000000    -0.029000000000    12.000000000000
         C            3.002600000000    -1.068900000000    -0.932000000000    12.000000000000
         N            4.462700000000    -1.072400000000    -1.006800000000    14.003074004780
         H            0.760400000000     0.728400000000     0.578000000000     1.007825032070
         H            2.809900000000    -0.097900000000     1.003200000000     1.007825032070
         H            2.817400000000     1.026800000000    -0.378600000000     1.007825032070
         H            2.581000000000    -0.963300000000    -1.938400000000     1.007825032070
         H            2.653800000000    -2.036400000000    -0.553400000000     1.007825032070
         H            4.751399000000    -0.937354000000    -1.975251000000     1.007825032070
         H            4.802581000000    -1.996506000000    -0.740792000000     1.007825032070

  Charge       = 0
  Multiplicity = 1
  Basis Set: CC-PVDZ
    Blend: CC-PVDZ
  Basis Set: (CC-PVDZ AUX)
    Blend: CC-PVDZ-JKFIT

    Orbital Energies [Eh]
    ---------------------

    Doubly Occupied:

       1A    -19.122323     2A    -14.306094     3A    -10.216010
       4A    -10.201592     5A     -1.004763     6A     -0.877015
       7A     -0.709832     8A     -0.591383     9A     -0.501880
      10A     -0.496625    11A     -0.434930    12A     -0.425951
      13A     -0.393150    14A     -0.344955    15A     -0.324334
      16A     -0.255882    17A     -0.235600

  @DF-RKS Final Energy:  -210.38978892416961

   => Energetics <=

    Nuclear Repulsion Energy =            130.2406695631811999
    One-Electron Energy =                -543.4941869837484774
    Two-Electron Energy =                 226.3555813836401569
    DFT Exchange-Correlation Energy =     -23.4871847572424919
    Empirical Dispersion Energy =          -0.0046681300000000
    VV10 Nonlocal Energy =                  0.0000000000000000
    Total Energy =                       -210.3897889241696078

  Dipole Moment: [D]
     X:     0.6096      Y:    -0.1419      Z:    -0.0211     Total:     0.6262

  Mulliken Charges: (a.u.)
   Center  Symbol    Alpha    Beta     Spin     Total
       1     O     4.14147  4.14147  0.00000 -0.28294
       2     C     2.92009  2.92009  0.00000  0.15983
       3     C     2.99873  2.99873  0.00000  0.00254
       4     N     3.58711  3.58711  0.00000 -0.17422
       5     H     0.43031  0.43031  0.00000  0.13938
       6     H     0.50307  0.50307  0.00000 -0.00613
       7     H     0.50316  0.50316  0.00000 -0.00631
       8     H     0.49460  0.49460  0.00000  0.01081
       9     H     0.49455  0.49455  0.00000  0.01090
      10     H     0.46342  0.46342  0.00000  0.07316
      11     H     0.46349  0.46349  0.00000  0.07301

   Total alpha = 17.00000, Total beta = 17.00000, Total charge =  0.00000

*** Psi4 exiting successfully. Buy a developer a beer!
