                               Psi4 1.2.1 release

  ==> Input File <==

--------------------------------------------------------------------------
set_num_threads(1)
set_memory('5348 MB')

set { scf_mem_safety_factor 0.7 }

set { reference rks }
set { basis cc-pVDZ }

molecule MOL {
    0 1
    noreorient
    nocom
    symmetry c1
    O    1.141000   0.017000   0.083000
    C    2.558000   0.086000  -0.005000
    C    3.192000  -0.789000   1.067000
    O    2.199687  -1.234814   1.983478
    H    0.789000   0.590000  -0.620000
    H    2.874000   1.128000   0.115000
    H    2.871000  -0.243000  -1.001000
    H    3.958961  -0.230164   1.612353
    H    3.675748  -1.660664   0.611953
    H    2.657041  -1.785730   2.642421
}

set optking { frozen_dihedral = (" 1 2 3 4 ") }

energy, wfn = energy('B3LYP-D3', return_wfn=True)

import os
os.chdir(os.environ['HTMD_PSI4_WORKDIR'])

oeprop(wfn, 'DIPOLE', 'QUADRUPOLE', 'MULLIKEN_CHARGES')

with open('psi4out.xyz', 'w') as f:
    f.write('10 ' )
    f.write('%.12f\n' % energy)
    f.write(MOL.save_string_xyz())
--------------------------------------------------------------------------

    Molecular point group: c1

    Geometry (in Angstrom), charge = 0, multiplicity = 1:

       Center              X                  Y                   Z               Mass
    ------------   -----------------  -----------------  -----------------  -----------------
         O            1.141000000000     0.017000000000     0.083000000000    15.994914619560
         C            2.558000000000     0.086000000000    -0.005000000000    12.000000000000
         C            3.192000000000    -0.789000000000     1.067000000000    12.000000000000
         O            2.199687000000    -1.234814000000     1.983478000000    15.994914619560
         H            0.789000000000     0.590000000000    -0.620000000000     1.007825032070
         H            2.874000000000     1.128000000000     0.115000000000     1.007825032070
         H            2.871000000000    -0.243000000000    -1.001000000000     1.007825032070
         H            3.958961000000    -0.230164000000     1.612353000000     1.007825032070
         H            3.675748000000    -1.660664000000     0.611953000000     1.007825032070
         H            2.657041000000    -1.785730000000     2.642421000000     1.007825032070

  Charge       = 0
  Multiplicity = 1
  Basis Set: CC-PVDZ
    Blend: CC-PVDZ
  Basis Set: (CC-PVDZ AUX)
    Blend: CC-PVDZ-JKFIT

    Orbital Energies [Eh]
    ---------------------

    Doubly Occupied:

       1A    -19.122072     2A    -19.122007     3A    -10.225686
       4A    -10.225501     5A     -1.016423     6A     -0.993703
       7A     -0.733967     8A     -0.599132     9A     -0.527181
      10A     -0.478371    11A     -0.459342    12A     -0.413584
      13A     -0.393366    14A     -0.326083    15A     -0.323791
      16A     -0.268018    17A     -0.242774

  @DF-RKS Final Energy:  -230.24437901358473

   => Energetics <=

    Nuclear Repulsion Energy =            133.2375247458366232
    One-Electron Energy =                -578.3885046564137156
    Two-Electron Energy =                 239.4516392089448686
    DFT Exchange-Correlation Energy =     -24.5410504019524751
    Empirical Dispersion Energy =          -0.0039879100000000
    VV10 Nonlocal Energy =                  0.0000000000000000
    Total Energy =                       -230.2443790135847337

  Dipole Moment: [D]
     X:     1.9778      Y:     0.4232      Z:    -0.8262     Total:     2.1848

  Mulliken Charges: (a.u.)
   Center  Symbol    Alpha    Beta     Spin     Total
       1     O     4.12864  4.12864  0.00000 -0.25727
       2     C     2.93520  2.93520  0.00000  0.12961
       3     C     2.93531  2.93531  0.00000  0.12937
       4     O     4.12887  4.12887  0.00000 -0.25774
       5     H     0.43200  0.43200  0.00000  0.13600
       6     H     0.50180  0.50180  0.00000 -0.00361
       7     H     0.50233  0.50233  0.00000 -0.00467
       8     H     0.50221  0.50221  0.00000 -0.00443
       9     H     0.50168  0.50168  0.00000 -0.00336
      10     H     0.43195  0.43195  0.00000  0.13610

   Total alpha = 17.00000, Total beta = 17.00000, Total charge =  0.00000

*** Psi4 exiting successfully. Buy a developer a beer!
