                               Psi4 1.2.1 release

  ==> Input File <==

--------------------------------------------------------------------------
set_num_threads(1)
set_memory('5348 MB')

set { scf_mem_safety_factor 0.7 }

set { reference rks }
set { basis cc-pVDZ }

molecule MOL {
    0 1
    noreorient
    nocom
    symmetry c1
    O    1.141000   0.017000   0.083000
    C    2.558000   0.086000  -0.005000
    C    3.192000  -0.789000   1.067000
    O    4.174618  -1.637964   0.486405
    H    0.789000   0.590000  -0.620000
    H    2.874000   1.128000   0.115000
    H    2.871000  -0.243000  -1.001000
    H    2.431188  -1.404018   1.557770
    H    3.665265  -0.168357   1.836221
    H    4.544677  -2.171412   1.211233
}

set optking { frozen_dihedral = (" 1 2 3 4 ") }

energy, wfn = energy('B3LYP-D3', return_wfn=True)

import os
os.chdir(os.environ['HTMD_PSI4_WORKDIR'])

oeprop(wfn, 'DIPOLE', 'QUADRUPOLE', 'MULLIKEN_CHARGES')

with open('psi4out.xyz', 'w') as f:
    f.write('10 ' )
    f.write('%.12f\n' % energy)
    f.write(MOL.save_string_xyz())
--------------------------------------------------------------------------

    Molecular point group: c1

    Geometry (in Angstrom), charge = 0, multiplicity = 1:

       Center              X                  Y                   Z               Mass
    ------------   -----------------  -----------------  -----------------  -----------------
         O            1.141000000000     0.017000000000     0.083000000000    15.994914619560
         C            2.558000000000     0.086000000000    -0.005000000000    12.000000000000
         C            3.192000000000    -0.789000000000     1.067000000000    12.000000000000
         O            4.174618000000    -1.637964000000     0.486405000000    15.994914619560
         H            0.789000000000     0.590000000000    -0.620000000000     1.007825032070
         H            2.874000000000     1.128000000000     0.115000000000     1.007825032070
         H            2.871000000000    -0.243000000000    -1.001000000000     1.007825032070
         H            2.431188000000    -1.404018000000     1.557770000000     1.007825032070
         H            3.665265000000    -0.168357000000     1.836221000000     1.007825032070
         H            4.544677000000    -2.171412000000     1.211233000000     1.007825032070

  Charge       = 0
  Multiplicity = 1
  Basis Set: CC-PVDZ
    Blend: CC-PVDZ
  Basis Set: (CC-PVDZ AUX)
    Blend: CC-PVDZ-JKFIT

    Orbital Energies [Eh]
    ---------------------

    Doubly Occupied:

       1A    -19.129276     2A    -19.129233     3A    -10.225299
       4A    -10.225108     5A     -1.017658     6A     -1.006004
       7A     -0.732581     8A     -0.603260     9A     -0.522518
      10A     -0.501248    11A     -0.444438    12A     -0.411206
      13A     -0.403612    14A     -0.347383    15A     -0.320205
      16A     -0.265548    17A     -0.257444

  @DF-RKS Final Energy:  -230.25339957774889

   => Energetics <=

    Nuclear Repulsion Energy =            129.9120494846710017
    One-Electron Energy =                -571.6124457517726114
    Two-Electron Energy =                 235.9929962586498675
    DFT Exchange-Correlation Energy =     -24.5417449392971463
    Empirical Dispersion Energy =          -0.0042546300000000
    VV10 Nonlocal Energy =                  0.0000000000000000
    Total Energy =                       -230.2533995777488940

  Dipole Moment: [D]
     X:     0.3703      Y:     0.7898      Z:     0.4235     Total:     0.9697

  Mulliken Charges: (a.u.)
   Center  Symbol    Alpha    Beta     Spin     Total
       1     O     4.14045  4.14045  0.00000 -0.28089
       2     C     2.93381  2.93381  0.00000  0.13238
       3     C     2.93392  2.93392  0.00000  0.13217
       4     O     4.14066  4.14066  0.00000 -0.28133
       5     H     0.42986  0.42986  0.00000  0.14028
       6     H     0.50135  0.50135  0.00000 -0.00270
       7     H     0.49449  0.49449  0.00000  0.01102
       8     H     0.49440  0.49440  0.00000  0.01119
       9     H     0.50125  0.50125  0.00000 -0.00250
      10     H     0.42981  0.42981  0.00000  0.14038

   Total alpha = 17.00000, Total beta = 17.00000, Total charge =  0.00000

*** Psi4 exiting successfully. Buy a developer a beer!
