                               Psi4 1.2.1 release

  ==> Input File <==

--------------------------------------------------------------------------
set_num_threads(4)
set_memory('3000 MB')

set { scf_mem_safety_factor 0.7 }

set { reference rks }
set { basis 6-31G* }

molecule MOL {
    1 1
    noreorient
    nocom
    symmetry c1
    C   -0.000000  -0.000000  -0.177864
    C    0.036678   1.219374   0.524165
    C    0.031765   1.213120   1.915444
    C    0.000000   0.000000   2.610107
    C   -0.031765  -1.213120   1.915444
    C   -0.036678  -1.219375   0.524165
    C   -0.000000   0.000000  -1.644734
    H    0.018170   2.164705  -0.010854
    H    0.042402   2.152895   2.457886
    H    0.000000   0.000000   3.695756
    H   -0.042402  -2.152895   2.457886
    H   -0.018170  -2.164705  -0.010853
    N    1.152097  -0.034654  -2.308460
    N   -1.152097   0.034654  -2.308460
    H   -1.209665  -0.056578  -3.315997
    H   -2.013552   0.224422  -1.813317
    H    2.013552  -0.224422  -1.813316
    H    1.209665   0.056579  -3.315997
}

set optking { frozen_dihedral = (" 2 1 7 13 ") }

set optking { dynamic_level = 1
 geom_maxiter = 250
 print_trajectory_xyz_file = True }

energy, wfn = optimize('B3LYP-D3', return_wfn=True)

import os
os.chdir(os.environ['HTMD_PSI4_WORKDIR'])

oeprop(wfn, 'DIPOLE', 'QUADRUPOLE', 'MULLIKEN_CHARGES')

with open('psi4out.xyz', 'w') as f:
    f.write('18 ' )
    f.write('%.12f\n' % energy)
    f.write(MOL.save_string_xyz())
--------------------------------------------------------------------------

    Molecular point group: c1
  Charge       = 1
  Multiplicity = 1
  Basis Set: 6-31G*
    Blend: 6-31G*
  Basis Set: (6-31G* AUX)
    Blend: CC-PVDZ-JKFIT
  @DF-RKS Final Energy:  -381.46194148156934
    Total Energy =                       -381.4619414815693403
    Molecular point group: c1
  Basis Set: 6-31G*
    Blend: 6-31G*
  Basis Set: (6-31G* AUX)
    Blend: CC-PVDZ-JKFIT
  Basis Set: 6-31G*
    Blend: 6-31G*
  Basis Set: (6-31G* AUX)
    Blend: CC-PVDZ-JKFIT
  @DF-RKS Final Energy:  -381.46364572413404
    Total Energy =                       -381.4636457241340395
  Basis Set: 6-31G*
    Blend: 6-31G*
  Basis Set: (6-31G* AUX)
    Blend: CC-PVDZ-JKFIT
  Basis Set: 6-31G*
    Blend: 6-31G*
  @DF-RKS Final Energy:  -381.46398223438018
    Total Energy =                       -381.4639822343801256
  @DF-RKS Final Energy:  -381.46400562774801
    Total Energy =                       -381.4640056277480653
  Basis Set: (6-31G* AUX)
    Blend: CC-PVDZ-JKFIT
  Basis Set: 6-31G*
    Blend: 6-31G*
  Basis Set: (6-31G* AUX)
    Blend: CC-PVDZ-JKFIT
  @DF-RKS Final Energy:  -381.46401021604453
    Total Energy =                       -381.4640102160445281
  Basis Set: 6-31G*
    Blend: 6-31G*
  Basis Set: (6-31G* AUX)
    Blend: CC-PVDZ-JKFIT
  Charge       = 1
  Multiplicity = 1
  Basis Set: 6-31G*
    Blend: 6-31G*
  Basis Set: (6-31G* AUX)
    Blend: CC-PVDZ-JKFIT

    Orbital Energies [Eh]
    ---------------------

    Doubly Occupied:

       1A    -14.577051     2A    -14.577038     3A    -10.503717
       4A    -10.367583     5A    -10.348148     6A    -10.348138
       7A    -10.332921     8A    -10.332768     9A    -10.331803
      10A     -1.191335    11A     -1.100470    12A     -1.008185
      13A     -0.921474    14A     -0.894291    15A     -0.845773
      16A     -0.788444    17A     -0.764943    18A     -0.755911
      19A     -0.727768    20A     -0.692343    21A     -0.666561
      22A     -0.623962    23A     -0.615002    24A     -0.577231
      25A     -0.572444    26A     -0.566684    27A     -0.514988
      28A     -0.495674    29A     -0.490878    30A     -0.480801
      31A     -0.403740    32A     -0.397434

  @DF-RKS Final Energy:  -381.46401072797045

   => Energetics <=

    Nuclear Repulsion Energy =            416.1222777453606909
    One-Electron Energy =               -1327.5955801609370610
    Two-Electron Energy =                 574.4249244969545316
    DFT Exchange-Correlation Energy =     -44.4040064593486505
    Empirical Dispersion Energy =          -0.0116263500000000
    VV10 Nonlocal Energy =                  0.0000000000000000
    Total Energy =                       -381.4640107279705035
    Molecular point group: c1
  Basis Set: 6-31G*
    Blend: 6-31G*
  Basis Set: (6-31G* AUX)
    Blend: CC-PVDZ-JKFIT

  -Total Gradient:
     Atom            X                  Y                   Z
    ------   -----------------  -----------------  -----------------
       1        0.000001837876     0.000048390654     0.000045848725
       2        0.000031492866    -0.000023178787    -0.000019233899
       3       -0.000015867356     0.000000746190     0.000007198570
       4       -0.000012039432     0.000005067262    -0.000008357560
       5        0.000012640549    -0.000003360179     0.000000262675
       6       -0.000026827962    -0.000011390065    -0.000019358928
       7        0.000026229364    -0.000000916195    -0.000042442322
       8       -0.000010767075     0.000001952009     0.000003832342
       9        0.000002320155    -0.000003103738     0.000001402642
      10        0.000004804613    -0.000000196354     0.000002435263
      11       -0.000000255717     0.000001850452     0.000003158136
      12        0.000011592597     0.000000458855     0.000001531425
      13       -0.000011358685    -0.000026492598     0.000035664006
      14       -0.000011954242    -0.000023992548     0.000005267135
      15       -0.000001525135     0.000009375123     0.000021576737
      16        0.000014186979     0.000008387989    -0.000015825023
      17       -0.000017659792     0.000009165781    -0.000025984513
      18        0.000003266709     0.000007220076     0.000008276563

  **** Optimization is complete! (in 6 steps) ****
    Final optimized geometry and variables:
    Molecular point group: c1

    Geometry (in Angstrom), charge = 1, multiplicity = 1:

    C            0.000260171145     0.000145243271    -0.173093502137
    C            0.040959716935     1.221061332941     0.514479546539
    C            0.040274134802     1.212226464278     1.908830403288
    C           -0.000258176022     0.000020708320     2.602535598183
    C           -0.040454346032    -1.212157097627     1.908727257280
    C           -0.040632345054    -1.220881773865     0.514391659268
    C            0.000133422936    -0.000076733594    -1.658534786757
    H            0.072189637863     2.160743048288    -0.029724150765
    H            0.071515240784     2.151886678834     2.451015915016
    H           -0.000383570475    -0.000019788305     3.688138652245
    H           -0.071800220463    -2.151852661822     2.450851977172
    H           -0.071682920793    -2.160492073278    -0.029939277544
    N            1.155662425533    -0.038641918621    -2.302033414545
    N           -1.155664555768     0.037963096131    -2.301650261972
    H           -1.235924691977     0.040779582958    -3.313469696399
    H           -2.015435169358     0.067050182899    -1.767435112950
    H            2.015690211234    -0.066631110594    -1.768190395897
    H            1.235551034709    -0.041123180213    -3.313899410025

  Dipole Moment: [D]
     X:     0.0001      Y:     0.0016      Z:    -6.5807     Total:     6.5807

  Mulliken Charges: (a.u.)
   Center  Symbol    Alpha    Beta     Spin     Total
       1     C     2.99542  2.99542  0.00000  0.00917
       2     C     3.07010  3.07010  0.00000 -0.14020
       3     C     3.06290  3.06290  0.00000 -0.12580
       4     C     3.05379  3.05379  0.00000 -0.10758
       5     C     3.06290  3.06290  0.00000 -0.12579
       6     C     3.07008  3.07008  0.00000 -0.14016
       7     C     2.74885  2.74885  0.00000  0.50231
       8     H     0.41373  0.41373  0.00000  0.17254
       9     H     0.40754  0.40754  0.00000  0.18492
      10     H     0.40701  0.40701  0.00000  0.18598
      11     H     0.40754  0.40754  0.00000  0.18492
      12     H     0.41373  0.41373  0.00000  0.17255
      13     N     3.84327  3.84327  0.00000 -0.68654
      14     N     3.84326  3.84326  0.00000 -0.68653
      15     H     0.30491  0.30491  0.00000  0.39017
      16     H     0.29504  0.29504  0.00000  0.40993
      17     H     0.29503  0.29503  0.00000  0.40993
      18     H     0.30491  0.30491  0.00000  0.39018

   Total alpha = 32.00000, Total beta = 32.00000, Total charge =  1.00000

*** Psi4 exiting successfully. Buy a developer a beer!
