                               Psi4 1.2.1 release

  ==> Input File <==

--------------------------------------------------------------------------
set_num_threads(1)
set_memory('5348 MB')

set { scf_mem_safety_factor 0.7 }

set { reference rks }
set { basis cc-pVDZ }

molecule MOL {
    0 1
    noreorient
    nocom
    symmetry c1
    O    1.014300  -0.002300   0.060500
    O    2.462400  -0.107500  -0.002400
    H    0.821200  -0.823600  -0.430600
    H    2.587913  -0.461681   0.898510
}

set optking { frozen_dihedral = (" 3 1 2 4 ") }

set optking { dynamic_level = 1
 geom_maxiter = 250
 print_trajectory_xyz_file = True }

energy, wfn = optimize('B3LYP-D3', return_wfn=True)

import os
os.chdir(os.environ['HTMD_PSI4_WORKDIR'])

oeprop(wfn, 'DIPOLE', 'QUADRUPOLE', 'MULLIKEN_CHARGES')

with open('psi4out.xyz', 'w') as f:
    f.write('4 ' )
    f.write('%.12f\n' % energy)
    f.write(MOL.save_string_xyz())
--------------------------------------------------------------------------

    Molecular point group: c1
  Charge       = 0
  Multiplicity = 1
  Basis Set: CC-PVDZ
    Blend: CC-PVDZ
  Basis Set: (CC-PVDZ AUX)
    Blend: CC-PVDZ-JKFIT
  @DF-RKS Final Energy:  -151.54952882942766
    Total Energy =                       -151.5495288294276293
    Molecular point group: c1
  Basis Set: CC-PVDZ
    Blend: CC-PVDZ
  Basis Set: (CC-PVDZ AUX)
    Blend: CC-PVDZ-JKFIT
  Basis Set: CC-PVDZ
    Blend: CC-PVDZ
  Basis Set: (CC-PVDZ AUX)
    Blend: CC-PVDZ-JKFIT
  @DF-RKS Final Energy:  -151.55029849062547
    Total Energy =                       -151.5502984906254937
  Basis Set: CC-PVDZ
    Blend: CC-PVDZ
  Basis Set: (CC-PVDZ AUX)
    Blend: CC-PVDZ-JKFIT
  Basis Set: CC-PVDZ
    Blend: CC-PVDZ
  @DF-RKS Final Energy:  -151.55073870008133
    Total Energy =                       -151.5507387000812969
  Basis Set: (CC-PVDZ AUX)
    Blend: CC-PVDZ-JKFIT
  Basis Set: CC-PVDZ
    Blend: CC-PVDZ
  Basis Set: (CC-PVDZ AUX)
    Blend: CC-PVDZ-JKFIT
  @DF-RKS Final Energy:  -151.55075039735632
    Total Energy =                       -151.5507503973563246
  Basis Set: CC-PVDZ
    Blend: CC-PVDZ
  Basis Set: (CC-PVDZ AUX)
    Blend: CC-PVDZ-JKFIT
  Charge       = 0
  Multiplicity = 1
  Basis Set: CC-PVDZ
    Blend: CC-PVDZ
  Basis Set: (CC-PVDZ AUX)
    Blend: CC-PVDZ-JKFIT

    Orbital Energies [Eh]
    ---------------------

    Doubly Occupied:

       1A    -19.188222     2A    -19.188183     3A     -1.110774
       4A     -0.888964     5A     -0.530254     6A     -0.473146
       7A     -0.412901     8A     -0.296964     9A     -0.280991

  @DF-RKS Final Energy:  -151.55075133388459

   => Energetics <=

    Nuclear Repulsion Energy =             36.7689537294249078
    One-Electron Energy =                -281.5144025731029842
    Two-Electron Energy =                 107.6568961881493323
    DFT Exchange-Correlation Energy =     -14.4618489183558445
    Empirical Dispersion Energy =          -0.0003497600000000
    VV10 Nonlocal Energy =                  0.0000000000000000
    Total Energy =                       -151.5507513338846195
    Molecular point group: c1
  Basis Set: CC-PVDZ
    Blend: CC-PVDZ
  Basis Set: (CC-PVDZ AUX)
    Blend: CC-PVDZ-JKFIT

  -Total Gradient:
     Atom            X                  Y                   Z
    ------   -----------------  -----------------  -----------------
       1        0.000051270352     0.000693419325    -0.001530881548
       2        0.000074423353     0.001493886252     0.000767957631
       3       -0.000021458637    -0.000775603615     0.001303186342
       4       -0.000104344403    -0.001413596643    -0.000539601530

  **** Optimization is complete! (in 5 steps) ****
    Final optimized geometry and variables:
    Molecular point group: c1

    Geometry (in Angstrom), charge = 0, multiplicity = 1:

    O            1.015205517098    -0.013901687037     0.039715628501
    O            2.461046545102    -0.103532503187     0.021013034553
    H            0.775684609246    -0.822773008254    -0.448070036663
    H            2.633876328554    -0.454873801522     0.913351373609

  Dipole Moment: [D]
     X:    -0.1147      Y:    -1.9951      Z:     0.6957     Total:     2.1160

  Mulliken Charges: (a.u.)
   Center  Symbol    Alpha    Beta     Spin     Total
       1     O     4.08843  4.08843  0.00000 -0.17685
       2     O     4.08843  4.08843  0.00000 -0.17685
       3     H     0.41157  0.41157  0.00000  0.17685
       4     H     0.41157  0.41157  0.00000  0.17685

   Total alpha =  9.00000, Total beta =  9.00000, Total charge = -0.00000

*** Psi4 exiting successfully. Buy a developer a beer!
