                               Psi4 1.2.1 release

  ==> Input File <==

--------------------------------------------------------------------------
set_num_threads(4)
set_memory('3000 MB')

set { scf_mem_safety_factor 0.7 }

set { reference rks }
set { basis 6-31G* }

molecule MOL {
    1 1
    noreorient
    nocom
    symmetry c1
    C   -0.000000  -0.000000  -0.177864
    C    0.036678   1.219374   0.524165
    C    0.031765   1.213120   1.915444
    C    0.000000   0.000000   2.610107
    C   -0.031765  -1.213120   1.915444
    C   -0.036678  -1.219375   0.524165
    C   -0.000000   0.000000  -1.644734
    H    0.018170   2.164705  -0.010854
    H    0.042402   2.152895   2.457886
    H    0.000000   0.000000   3.695756
    H   -0.042402  -2.152895   2.457886
    H   -0.018170  -2.164705  -0.010853
    N   -0.712590  -0.905950  -2.308461
    N    0.712590   0.905950  -2.308460
    H    0.673432   1.006470  -3.315997
    H    1.377190   1.485970  -1.813316
    H   -1.561645  -1.276077  -1.901773
    H   -0.482495  -1.206075  -3.248539
}

set optking { frozen_dihedral = (" 1 7 13 17 ") }

set optking { dynamic_level = 1
 geom_maxiter = 250
 print_trajectory_xyz_file = True }

energy, wfn = optimize('B3LYP-D3', return_wfn=True)

import os
os.chdir(os.environ['HTMD_PSI4_WORKDIR'])

oeprop(wfn, 'DIPOLE', 'QUADRUPOLE', 'MULLIKEN_CHARGES')

with open('psi4out.xyz', 'w') as f:
    f.write('18 ' )
    f.write('%.12f\n' % energy)
    f.write(MOL.save_string_xyz())
--------------------------------------------------------------------------

    Molecular point group: c1
  Charge       = 1
  Multiplicity = 1
  Basis Set: 6-31G*
    Blend: 6-31G*
  Basis Set: (6-31G* AUX)
    Blend: CC-PVDZ-JKFIT
  @DF-RKS Final Energy:  -381.46662032169775
    Total Energy =                       -381.4666203216978033
    Molecular point group: c1
  Basis Set: 6-31G*
    Blend: 6-31G*
  Basis Set: (6-31G* AUX)
    Blend: CC-PVDZ-JKFIT
  Basis Set: 6-31G*
    Blend: 6-31G*
  Basis Set: (6-31G* AUX)
    Blend: CC-PVDZ-JKFIT
  @DF-RKS Final Energy:  -381.46849263584113
    Total Energy =                       -381.4684926358411872
  Basis Set: 6-31G*
    Blend: 6-31G*
  Basis Set: (6-31G* AUX)
    Blend: CC-PVDZ-JKFIT
  Basis Set: 6-31G*
    Blend: 6-31G*
  @DF-RKS Final Energy:  -381.46900768981715
    Total Energy =                       -381.4690076898172038
  @DF-RKS Final Energy:  -381.46924641459873
    Total Energy =                       -381.4692464145986719
  Basis Set: (6-31G* AUX)
    Blend: CC-PVDZ-JKFIT
  Basis Set: 6-31G*
    Blend: 6-31G*
  Basis Set: (6-31G* AUX)
    Blend: CC-PVDZ-JKFIT
  @DF-RKS Final Energy:  -381.46925177356900
    Total Energy =                       -381.4692517735689421
  Basis Set: 6-31G*
    Blend: 6-31G*
  Basis Set: (6-31G* AUX)
    Blend: CC-PVDZ-JKFIT
  Charge       = 1
  Multiplicity = 1
  Basis Set: 6-31G*
    Blend: 6-31G*
  Basis Set: (6-31G* AUX)
    Blend: CC-PVDZ-JKFIT

    Orbital Energies [Eh]
    ---------------------

    Doubly Occupied:

       1A    -14.570076     2A    -14.565825     3A    -10.496866
       4A    -10.372581     5A    -10.356601     6A    -10.355466
       7A    -10.343824     8A    -10.340605     9A    -10.340130
      10A     -1.183524    11A     -1.091425    12A     -1.014247
      13A     -0.926936    14A     -0.902149    15A     -0.844465
      16A     -0.783955    17A     -0.773044    18A     -0.739537
      19A     -0.732010    20A     -0.691339    21A     -0.668854
      22A     -0.625411    23A     -0.613493    24A     -0.585807
      25A     -0.579112    26A     -0.571590    27A     -0.518046
      28A     -0.505570    29A     -0.497858    30A     -0.475166
      31A     -0.412197    32A     -0.405724

  @DF-RKS Final Energy:  -381.46925248082340

   => Energetics <=

    Nuclear Repulsion Energy =            416.8769133588911586
    One-Electron Energy =               -1328.9787170873844389
    Two-Electron Energy =                 575.0486971512771106
    DFT Exchange-Correlation Energy =     -44.4042178436072419
    Empirical Dispersion Energy =          -0.0119280600000000
    VV10 Nonlocal Energy =                  0.0000000000000000
    Total Energy =                       -381.4692524808233429
    Molecular point group: c1
  Basis Set: 6-31G*
    Blend: 6-31G*
  Basis Set: (6-31G* AUX)
    Blend: CC-PVDZ-JKFIT

  -Total Gradient:
     Atom            X                  Y                   Z
    ------   -----------------  -----------------  -----------------
       1        0.002671312289    -0.001808160019    -0.000075054071
       2        0.000017150705     0.000017513697     0.000024483890
       3       -0.000015710455     0.000004497726    -0.000008721810
       4        0.000012147401     0.000016290107     0.000015925921
       5        0.000003816963    -0.000019582154    -0.000032912765
       6        0.000020631706     0.000015642205     0.000039328355
       7       -0.005159642358     0.003875572994    -0.000685336436
       8        0.000015616352    -0.000004717020    -0.000017758848
       9        0.000000407363     0.000000756314     0.000003418646
      10       -0.000003877430     0.000006138442     0.000001017143
      11       -0.000011631765     0.000000018664    -0.000002922738
      12       -0.000001040183    -0.000015016536    -0.000013664871
      13        0.005187027548    -0.005270930136     0.002726078828
      14        0.000017672252     0.000030550242    -0.000009112431
      15       -0.000008652018    -0.000004628292    -0.000002100266
      16       -0.000007061102     0.000011332764     0.000016075425
      17       -0.002738047950     0.003145937315    -0.002002851453
      18       -0.000007067996    -0.000011511297     0.000009024199

  **** Optimization is complete! (in 6 steps) ****
    Final optimized geometry and variables:
    Molecular point group: c1

    Geometry (in Angstrom), charge = 1, multiplicity = 1:

    C           -0.005585886427     0.001664894564    -0.175246688774
    C            0.041724417199     1.222370422085     0.526095080197
    C            0.041488093924     1.218424159432     1.916678247858
    C           -0.001064298161     0.005703148000     2.612461459071
    C           -0.048315328158    -1.208173094827     1.919558375859
    C           -0.055844249675    -1.217059155879     0.528621322957
    C           -0.000970742443    -0.004481736577    -1.638716215955
    H            0.029312348770     2.167269919570    -0.010137785603
    H            0.062847166058     2.158329350353     2.458555278651
    H            0.001894539273     0.007045154410     3.698161111637
    H           -0.068895539186    -2.146751497146     2.463802862961
    H           -0.051763201184    -2.160676204630    -0.008525236441
    N           -0.641622859345    -0.972303851684    -2.301210319638
    N            0.705535050650     0.902419346276    -2.306637553976
    H            0.673498923239     0.988115901461    -3.315945255583
    H            1.367512014820     1.490417676749    -1.816445103093
    H           -1.459139298814    -1.396590345171    -1.879896585835
    H           -0.584129150540    -1.045437086987    -3.311170994295

  Dipole Moment: [D]
     X:    -0.1355      Y:     0.2507      Z:    -5.7231     Total:     5.7302

  Mulliken Charges: (a.u.)
   Center  Symbol    Alpha    Beta     Spin     Total
       1     C     2.95811  2.95811  0.00000  0.08379
       2     C     3.08324  3.08324  0.00000 -0.16647
       3     C     3.06258  3.06258  0.00000 -0.12516
       4     C     3.05111  3.05111  0.00000 -0.10222
       5     C     3.06260  3.06260  0.00000 -0.12521
       6     C     3.07901  3.07901  0.00000 -0.15802
       7     C     2.72822  2.72822  0.00000  0.54356
       8     H     0.41455  0.41455  0.00000  0.17090
       9     H     0.40544  0.40544  0.00000  0.18913
      10     H     0.40367  0.40367  0.00000  0.19266
      11     H     0.40527  0.40527  0.00000  0.18946
      12     H     0.41146  0.41146  0.00000  0.17707
      13     N     3.86157  3.86157  0.00000 -0.72314
      14     N     3.85954  3.85954  0.00000 -0.71907
      15     H     0.30559  0.30559  0.00000  0.38883
      16     H     0.29952  0.29952  0.00000  0.40095
      17     H     0.30074  0.30074  0.00000  0.39853
      18     H     0.30778  0.30778  0.00000  0.38443

   Total alpha = 32.00000, Total beta = 32.00000, Total charge =  1.00000

*** Psi4 exiting successfully. Buy a developer a beer!
