                               Psi4 1.2.1 release

  ==> Input File <==

--------------------------------------------------------------------------
set_num_threads(1)
set_memory('5348 MB')

set { scf_mem_safety_factor 0.7 }

set { reference rks }
set { basis cc-pVDZ }

molecule MOL {
    0 1
    noreorient
    nocom
    symmetry c1
    O    1.014300  -0.002300   0.060500
    O    2.462400  -0.107500  -0.002400
    H    0.821200  -0.823600  -0.430600
    H    2.491927  -0.944900  -0.503126
}

set optking { frozen_dihedral = (" 3 1 2 4 ") }

energy, wfn = energy('B3LYP-D3', return_wfn=True)

import os
os.chdir(os.environ['HTMD_PSI4_WORKDIR'])

oeprop(wfn, 'DIPOLE', 'QUADRUPOLE', 'MULLIKEN_CHARGES')

with open('psi4out.xyz', 'w') as f:
    f.write('4 ' )
    f.write('%.12f\n' % energy)
    f.write(MOL.save_string_xyz())
--------------------------------------------------------------------------

    Molecular point group: c1

    Geometry (in Angstrom), charge = 0, multiplicity = 1:

       Center              X                  Y                   Z               Mass
    ------------   -----------------  -----------------  -----------------  -----------------
         O            1.014300000000    -0.002300000000     0.060500000000    15.994914619560
         O            2.462400000000    -0.107500000000    -0.002400000000    15.994914619560
         H            0.821200000000    -0.823600000000    -0.430600000000     1.007825032070
         H            2.491927000000    -0.944900000000    -0.503126000000     1.007825032070

  Charge       = 0
  Multiplicity = 1
  Basis Set: CC-PVDZ
    Blend: CC-PVDZ
  Basis Set: (CC-PVDZ AUX)
    Blend: CC-PVDZ-JKFIT

    Orbital Energies [Eh]
    ---------------------

    Doubly Occupied:

       1A    -19.192010     2A    -19.191982     3A     -1.122363
       4A     -0.887508     5A     -0.562863     6A     -0.428579
       7A     -0.394501     8A     -0.382292     9A     -0.246746

  @DF-RKS Final Energy:  -151.53343244590351

   => Energetics <=

    Nuclear Repulsion Energy =             36.8919969592745289
    One-Electron Energy =                -281.6482661351519710
    Two-Electron Energy =                 107.6863791290864185
    DFT Exchange-Correlation Energy =     -14.4633656991125115
    Empirical Dispersion Energy =          -0.0001767000000000
    VV10 Nonlocal Energy =                  0.0000000000000000
    Total Energy =                       -151.5334324459035145

  Dipole Moment: [D]
     X:    -0.2643      Y:    -2.6802      Z:    -1.6026     Total:     3.1339

  Mulliken Charges: (a.u.)
   Center  Symbol    Alpha    Beta     Spin     Total
       1     O     4.07798  4.07798  0.00000 -0.15596
       2     O     4.07796  4.07796  0.00000 -0.15592
       3     H     0.42202  0.42202  0.00000  0.15596
       4     H     0.42204  0.42204  0.00000  0.15593

   Total alpha =  9.00000, Total beta =  9.00000, Total charge =  0.00000

*** Psi4 exiting successfully. Buy a developer a beer!
