                               Psi4 1.2.1 release

  ==> Input File <==

--------------------------------------------------------------------------
set_num_threads(1)
set_memory('5348 MB')

set { scf_mem_safety_factor 0.7 }

set { reference rks }
set { basis cc-pVDZ }

molecule MOL {
    0 1
    noreorient
    nocom
    symmetry c1
    O    1.050400   0.042900  -0.048100
    C    2.474100   0.047400  -0.029000
    C    3.002600  -1.068900  -0.932000
    N    1.939499  -1.970043  -1.373879
    H    0.760400   0.728400   0.578000
    H    2.809900  -0.097900   1.003200
    H    2.817400   1.026800  -0.378600
    H    3.775195  -1.639495  -0.403552
    H    3.492822  -0.625712  -1.806256
    H    1.565617  -2.471422  -0.568700
    H    2.344383  -2.681674  -1.982075
}

set optking { frozen_dihedral = (" 1 2 3 4 ") }

energy, wfn = energy('B3LYP-D3', return_wfn=True)

import os
os.chdir(os.environ['HTMD_PSI4_WORKDIR'])

oeprop(wfn, 'DIPOLE', 'QUADRUPOLE', 'MULLIKEN_CHARGES')

with open('psi4out.xyz', 'w') as f:
    f.write('11 ' )
    f.write('%.12f\n' % energy)
    f.write(MOL.save_string_xyz())
--------------------------------------------------------------------------

    Molecular point group: c1

    Geometry (in Angstrom), charge = 0, multiplicity = 1:

       Center              X                  Y                   Z               Mass
    ------------   -----------------  -----------------  -----------------  -----------------
         O            1.050400000000     0.042900000000    -0.048100000000    15.994914619560
         C            2.474100000000     0.047400000000    -0.029000000000    12.000000000000
         C            3.002600000000    -1.068900000000    -0.932000000000    12.000000000000
         N            1.939499000000    -1.970043000000    -1.373879000000    14.003074004780
         H            0.760400000000     0.728400000000     0.578000000000     1.007825032070
         H            2.809900000000    -0.097900000000     1.003200000000     1.007825032070
         H            2.817400000000     1.026800000000    -0.378600000000     1.007825032070
         H            3.775195000000    -1.639495000000    -0.403552000000     1.007825032070
         H            3.492822000000    -0.625712000000    -1.806256000000     1.007825032070
         H            1.565617000000    -2.471422000000    -0.568700000000     1.007825032070
         H            2.344383000000    -2.681674000000    -1.982075000000     1.007825032070

  Charge       = 0
  Multiplicity = 1
  Basis Set: CC-PVDZ
    Blend: CC-PVDZ
  Basis Set: (CC-PVDZ AUX)
    Blend: CC-PVDZ-JKFIT

    Orbital Energies [Eh]
    ---------------------

    Doubly Occupied:

       1A    -19.121654     2A    -14.293936     3A    -10.222577
       4A    -10.200812     5A     -1.005608     6A     -0.866764
       7A     -0.714044     8A     -0.590412     9A     -0.510028
      10A     -0.480913    11A     -0.441594    12A     -0.413490
      13A     -0.387658    14A     -0.357724    15A     -0.320583
      16A     -0.255803    17A     -0.217891

  @DF-RKS Final Energy:  -210.38082274960172

   => Energetics <=

    Nuclear Repulsion Energy =            134.0855163042112110
    One-Electron Energy =                -551.2451327668495651
    Two-Electron Energy =                 230.2740661459479554
    DFT Exchange-Correlation Energy =     -23.4904186029112907
    Empirical Dispersion Energy =          -0.0048538300000000
    VV10 Nonlocal Energy =                  0.0000000000000000
    Total Energy =                       -210.3808227496017196

  Dipole Moment: [D]
     X:     1.4370      Y:     0.1090      Z:     1.3673     Total:     1.9865

  Mulliken Charges: (a.u.)
   Center  Symbol    Alpha    Beta     Spin     Total
       1     O     4.13163  4.13163  0.00000 -0.26327
       2     C     2.93052  2.93052  0.00000  0.13897
       3     C     2.98697  2.98697  0.00000  0.02606
       4     N     3.57949  3.57949  0.00000 -0.15898
       5     H     0.43339  0.43339  0.00000  0.13322
       6     H     0.50377  0.50377  0.00000 -0.00755
       7     H     0.50100  0.50100  0.00000 -0.00200
       8     H     0.50561  0.50561  0.00000 -0.01122
       9     H     0.49323  0.49323  0.00000  0.01354
      10     H     0.46600  0.46600  0.00000  0.06799
      11     H     0.46838  0.46838  0.00000  0.06324

   Total alpha = 17.00000, Total beta = 17.00000, Total charge = -0.00000

*** Psi4 exiting successfully. Buy a developer a beer!
