                               Psi4 1.2.1 release

  ==> Input File <==

--------------------------------------------------------------------------
set_num_threads(1)
set_memory('5348 MB')

set { scf_mem_safety_factor 0.7 }

set { reference rks }
set { basis cc-pVDZ }

molecule MOL {
    0 1
    noreorient
    nocom
    symmetry c1
    O    1.141000   0.017000   0.083000
    C    2.558000   0.086000  -0.005000
    C    3.192000  -0.789000   1.067000
    O    4.610000  -0.719000   0.979000
    H    0.789000   0.590000  -0.620000
    H    2.874000   1.128000   0.115000
    H    2.871000  -0.243000  -1.001000
    H    2.876000  -1.830000   0.947000
    H    2.879000  -0.459000   2.064000
    H    4.924925  -0.373244   1.832324
}

set optking { frozen_dihedral = (" 2 3 4 10 ") }

energy, wfn = energy('B3LYP-D3', return_wfn=True)

import os
os.chdir(os.environ['HTMD_PSI4_WORKDIR'])

oeprop(wfn, 'DIPOLE', 'QUADRUPOLE', 'MULLIKEN_CHARGES')

with open('psi4out.xyz', 'w') as f:
    f.write('10 ' )
    f.write('%.12f\n' % energy)
    f.write(MOL.save_string_xyz())
--------------------------------------------------------------------------

    Molecular point group: c1

    Geometry (in Angstrom), charge = 0, multiplicity = 1:

       Center              X                  Y                   Z               Mass
    ------------   -----------------  -----------------  -----------------  -----------------
         O            1.141000000000     0.017000000000     0.083000000000    15.994914619560
         C            2.558000000000     0.086000000000    -0.005000000000    12.000000000000
         C            3.192000000000    -0.789000000000     1.067000000000    12.000000000000
         O            4.610000000000    -0.719000000000     0.979000000000    15.994914619560
         H            0.789000000000     0.590000000000    -0.620000000000     1.007825032070
         H            2.874000000000     1.128000000000     0.115000000000     1.007825032070
         H            2.871000000000    -0.243000000000    -1.001000000000     1.007825032070
         H            2.876000000000    -1.830000000000     0.947000000000     1.007825032070
         H            2.879000000000    -0.459000000000     2.064000000000     1.007825032070
         H            4.924925000000    -0.373244000000     1.832324000000     1.007825032070

  Charge       = 0
  Multiplicity = 1
  Basis Set: CC-PVDZ
    Blend: CC-PVDZ
  Basis Set: (CC-PVDZ AUX)
    Blend: CC-PVDZ-JKFIT

    Orbital Energies [Eh]
    ---------------------

    Doubly Occupied:

       1A    -19.133403     2A    -19.130508     3A    -10.226783
       4A    -10.223766     5A     -1.019457     6A     -1.008706
       7A     -0.730985     8A     -0.606655     9A     -0.525494
      10A     -0.491149    11A     -0.457328    12A     -0.420691
      13A     -0.396030    14A     -0.340420    15A     -0.323217
      16A     -0.268121    17A     -0.263266

  @DF-RKS Final Energy:  -230.25689694728828

   => Energetics <=

    Nuclear Repulsion Energy =            129.5671427389061421
    One-Electron Energy =                -570.8830904080328992
    Two-Electron Energy =                 235.6026568696324830
    DFT Exchange-Correlation Energy =     -24.5391556477939652
    Empirical Dispersion Energy =          -0.0044505000000000
    VV10 Nonlocal Energy =                  0.0000000000000000
    Total Energy =                       -230.2568969472882543

  Dipole Moment: [D]
     X:    -0.0251      Y:     1.3389      Z:     0.3009     Total:     1.3726

  Mulliken Charges: (a.u.)
   Center  Symbol    Alpha    Beta     Spin     Total
       1     O     4.14101  4.14101  0.00000 -0.28203
       2     C     2.93538  2.93538  0.00000  0.12923
       3     C     2.93744  2.93744  0.00000  0.12513
       4     O     4.14004  4.14004  0.00000 -0.28008
       5     H     0.42797  0.42797  0.00000  0.14406
       6     H     0.50403  0.50403  0.00000 -0.00805
       7     H     0.49778  0.49778  0.00000  0.00443
       8     H     0.49167  0.49167  0.00000  0.01667
       9     H     0.49740  0.49740  0.00000  0.00521
      10     H     0.42728  0.42728  0.00000  0.14543

   Total alpha = 17.00000, Total beta = 17.00000, Total charge =  0.00000

*** Psi4 exiting successfully. Buy a developer a beer!
