                               Psi4 1.2.1 release

  ==> Input File <==

--------------------------------------------------------------------------
set_num_threads(4)
set_memory('3000 MB')

set { scf_mem_safety_factor 0.7 }

set { reference rks }
set { basis 6-31G* }

molecule MOL {
    1 1
    noreorient
    nocom
    symmetry c1
    C   -0.000000  -0.000000  -0.177864
    C    0.036678   1.219374   0.524165
    C    0.031765   1.213120   1.915444
    C    0.000000   0.000000   2.610107
    C   -0.031765  -1.213120   1.915444
    C   -0.036678  -1.219375   0.524165
    C   -0.000000   0.000000  -1.644734
    H    0.018170   2.164705  -0.010854
    H    0.042402   2.152895   2.457886
    H    0.000000   0.000000   3.695756
    H   -0.042402  -2.152895   2.457886
    H   -0.018170  -2.164705  -0.010853
    N   -0.606060  -0.980419  -2.308461
    N    0.606060   0.980419  -2.308460
    H    0.555834   1.075890  -3.315997
    H    1.201131   1.631576  -1.813316
    H   -1.201131  -1.631576  -1.813317
    H   -0.555834  -1.075890  -3.315997
}

set optking { frozen_dihedral = (" 2 1 7 13 ") }

set optking { dynamic_level = 1
 geom_maxiter = 250
 print_trajectory_xyz_file = True }

energy, wfn = optimize('B3LYP-D3', return_wfn=True)

import os
os.chdir(os.environ['HTMD_PSI4_WORKDIR'])

oeprop(wfn, 'DIPOLE', 'QUADRUPOLE', 'MULLIKEN_CHARGES')

with open('psi4out.xyz', 'w') as f:
    f.write('18 ' )
    f.write('%.12f\n' % energy)
    f.write(MOL.save_string_xyz())
--------------------------------------------------------------------------

    Molecular point group: c1
  Charge       = 1
  Multiplicity = 1
  Basis Set: 6-31G*
    Blend: 6-31G*
  Basis Set: (6-31G* AUX)
    Blend: CC-PVDZ-JKFIT
  @DF-RKS Final Energy:  -381.47019540771521
    Total Energy =                       -381.4701954077152095
    Molecular point group: c1
  Basis Set: 6-31G*
    Blend: 6-31G*
  Basis Set: (6-31G* AUX)
    Blend: CC-PVDZ-JKFIT
  Basis Set: 6-31G*
    Blend: 6-31G*
  Basis Set: (6-31G* AUX)
    Blend: CC-PVDZ-JKFIT
  @DF-RKS Final Energy:  -381.47026008757160
    Total Energy =                       -381.4702600875716598
  Basis Set: 6-31G*
    Blend: 6-31G*
  Basis Set: (6-31G* AUX)
    Blend: CC-PVDZ-JKFIT
  Basis Set: 6-31G*
    Blend: 6-31G*
  @DF-RKS Final Energy:  -381.47031376934171
    Total Energy =                       -381.4703137693416579
  Basis Set: (6-31G* AUX)
    Blend: CC-PVDZ-JKFIT
  Basis Set: 6-31G*
    Blend: 6-31G*
  Basis Set: (6-31G* AUX)
    Blend: CC-PVDZ-JKFIT
  @DF-RKS Final Energy:  -381.47031588632495
    Total Energy =                       -381.4703158863249541
  Basis Set: 6-31G*
    Blend: 6-31G*
  Basis Set: (6-31G* AUX)
    Blend: CC-PVDZ-JKFIT
  Charge       = 1
  Multiplicity = 1
  Basis Set: 6-31G*
    Blend: 6-31G*
  Basis Set: (6-31G* AUX)
    Blend: CC-PVDZ-JKFIT

    Orbital Energies [Eh]
    ---------------------

    Doubly Occupied:

       1A    -14.567311     2A    -14.567219     3A    -10.497000
       4A    -10.373938     5A    -10.357098     6A    -10.356947
       7A    -10.343961     8A    -10.341076     9A    -10.341010
      10A     -1.183399    11A     -1.091163    12A     -1.014856
      13A     -0.927110    14A     -0.902962    15A     -0.845734
      16A     -0.785612    17A     -0.774164    18A     -0.740061
      19A     -0.733850    20A     -0.688828    21A     -0.669158
      22A     -0.626791    23A     -0.615924    24A     -0.588967
      25A     -0.579726    26A     -0.573548    27A     -0.518381
      28A     -0.506462    29A     -0.498736    30A     -0.472411
      31A     -0.412275    32A     -0.406364

  @DF-RKS Final Energy:  -381.47031673977460

   => Energetics <=

    Nuclear Repulsion Energy =            416.9177151610053897
    One-Electron Energy =               -1329.0240281453566240
    Two-Electron Energy =                 575.0540692126094200
    DFT Exchange-Correlation Energy =     -44.4062107380327262
    Empirical Dispersion Energy =          -0.0118622300000000
    VV10 Nonlocal Energy =                  0.0000000000000000
    Total Energy =                       -381.4703167397745460
    Molecular point group: c1
  Basis Set: 6-31G*
    Blend: 6-31G*
  Basis Set: (6-31G* AUX)
    Blend: CC-PVDZ-JKFIT

  -Total Gradient:
     Atom            X                  Y                   Z
    ------   -----------------  -----------------  -----------------
       1       -0.001587588833    -0.000268974327    -0.000016770106
       2        0.001521921671    -0.000080209657    -0.000015826244
       3       -0.000016570897     0.000001178045     0.000001710661
       4       -0.000012179316    -0.000004819947     0.000014737487
       5       -0.000004240333    -0.000008774678     0.000011121948
       6        0.000016251203     0.000014816732    -0.000030899655
       7       -0.001247967610     0.001195681991    -0.000025525740
       8       -0.000004280960     0.000006756636    -0.000005285219
       9        0.000003567806     0.000001359613    -0.000005729406
      10        0.000011685480    -0.000004157952    -0.000001767911
      11       -0.000002013702     0.000002097442    -0.000001970220
      12       -0.000009776260    -0.000004336284     0.000007675984
      13        0.001304362771    -0.000800982900     0.000019561036
      14        0.000009530776    -0.000030227877     0.000038284545
      15       -0.000001741512    -0.000003783521    -0.000002968661
      16       -0.000012944545     0.000004605764     0.000000154912
      17        0.000020847048    -0.000005653621    -0.000009180739
      18        0.000012971010    -0.000015613119     0.000000193916

  **** Optimization is complete! (in 5 steps) ****
    Final optimized geometry and variables:
    Molecular point group: c1

    Geometry (in Angstrom), charge = 1, multiplicity = 1:

    C           -0.023015102413     0.003159063456    -0.177481780792
    C            0.014426258249     1.221164579835     0.528058357534
    C            0.026380594738     1.214235795930     1.918859027439
    C            0.012277079410     0.000533617952     2.613176209899
    C           -0.015364377753    -1.211750935210     1.917168652233
    C           -0.032958772721    -1.216425643701     0.526237993267
    C           -0.013737499596     0.002604698858    -1.643767331065
    H           -0.024139635839     2.168833073767    -0.001752247038
    H            0.036451044299     2.153851412463     2.461542177954
    H            0.024802931567    -0.000475808158     3.698751220638
    H           -0.009535759553    -2.152375853859     2.458169072732
    H           -0.001624301133    -2.162983618458    -0.005686771337
    N           -0.619032257428    -0.974206616006    -2.315234028284
    N            0.618984803404     0.966835623003    -2.307628324593
    H            0.581178231277     1.053309198038    -3.316363264477
    H            1.230265318433     1.604590271202    -1.815337180569
    H           -1.247104568183    -1.605158942880    -1.835322135980
    H           -0.558253986758    -1.065740916233    -3.322389647561

  Dipole Moment: [D]
     X:     0.0061      Y:    -0.0018      Z:    -5.6656     Total:     5.6656

  Mulliken Charges: (a.u.)
   Center  Symbol    Alpha    Beta     Spin     Total
       1     C     2.95189  2.95189  0.00000  0.09621
       2     C     3.08423  3.08423  0.00000 -0.16846
       3     C     3.06252  3.06252  0.00000 -0.12504
       4     C     3.05133  3.05133  0.00000 -0.10266
       5     C     3.06215  3.06215  0.00000 -0.12429
       6     C     3.08277  3.08277  0.00000 -0.16555
       7     C     2.71799  2.71799  0.00000  0.56402
       8     H     0.41468  0.41468  0.00000  0.17063
       9     H     0.40530  0.40530  0.00000  0.18941
      10     H     0.40358  0.40358  0.00000  0.19284
      11     H     0.40529  0.40529  0.00000  0.18943
      12     H     0.41486  0.41486  0.00000  0.17029
      13     N     3.86605  3.86605  0.00000 -0.73209
      14     N     3.86553  3.86553  0.00000 -0.73107
      15     H     0.30576  0.30576  0.00000  0.38847
      16     H     0.30011  0.30011  0.00000  0.39978
      17     H     0.30019  0.30019  0.00000  0.39962
      18     H     0.30577  0.30577  0.00000  0.38847

   Total alpha = 32.00000, Total beta = 32.00000, Total charge =  1.00000

*** Psi4 exiting successfully. Buy a developer a beer!
