                               Psi4 1.2.1 release

  ==> Input File <==

--------------------------------------------------------------------------
set_num_threads(4)
set_memory('3000 MB')

set { scf_mem_safety_factor 0.7 }

set { reference rks }
set { basis 6-31G* }

molecule MOL {
    1 1
    noreorient
    nocom
    symmetry c1
    C   -0.000000  -0.000000  -0.177864
    C    0.036678   1.219374   0.524165
    C    0.031765   1.213120   1.915444
    C    0.000000   0.000000   2.610107
    C   -0.031765  -1.213120   1.915444
    C   -0.036678  -1.219375   0.524165
    C   -0.000000   0.000000  -1.644734
    H    0.018170   2.164705  -0.010854
    H    0.042402   2.152895   2.457886
    H    0.000000   0.000000   3.695756
    H   -0.042402  -2.152895   2.457886
    H   -0.018170  -2.164705  -0.010853
    N    1.015073   0.546037  -2.308460
    N   -1.015073  -0.546037  -2.308460
    H   -1.019311  -0.653831  -3.315997
    H   -1.855998  -0.812421  -1.813317
    H    1.855998   0.812421  -1.813316
    H    1.019312   0.653832  -3.315996
}

set optking { frozen_dihedral = (" 2 1 7 13 ") }

set optking { dynamic_level = 1
 geom_maxiter = 250
 print_trajectory_xyz_file = True }

energy, wfn = optimize('B3LYP-D3', return_wfn=True)

import os
os.chdir(os.environ['HTMD_PSI4_WORKDIR'])

oeprop(wfn, 'DIPOLE', 'QUADRUPOLE', 'MULLIKEN_CHARGES')

with open('psi4out.xyz', 'w') as f:
    f.write('18 ' )
    f.write('%.12f\n' % energy)
    f.write(MOL.save_string_xyz())
--------------------------------------------------------------------------

    Molecular point group: c1
  Charge       = 1
  Multiplicity = 1
  Basis Set: 6-31G*
    Blend: 6-31G*
  Basis Set: (6-31G* AUX)
    Blend: CC-PVDZ-JKFIT
  @DF-RKS Final Energy:  -381.46715411914812
    Total Energy =                       -381.4671541191481197
    Molecular point group: c1
  Basis Set: 6-31G*
    Blend: 6-31G*
  Basis Set: (6-31G* AUX)
    Blend: CC-PVDZ-JKFIT
  Basis Set: 6-31G*
    Blend: 6-31G*
  Basis Set: (6-31G* AUX)
    Blend: CC-PVDZ-JKFIT
  @DF-RKS Final Energy:  -381.46794275484660
    Total Energy =                       -381.4679427548466606
  Basis Set: 6-31G*
    Blend: 6-31G*
  Basis Set: (6-31G* AUX)
    Blend: CC-PVDZ-JKFIT
  Basis Set: 6-31G*
    Blend: 6-31G*
  @DF-RKS Final Energy:  -381.46811708603019
    Total Energy =                       -381.4681170860301904
  @DF-RKS Final Energy:  -381.46813361245944
    Total Energy =                       -381.4681336124593827
  Basis Set: (6-31G* AUX)
    Blend: CC-PVDZ-JKFIT
  Basis Set: 6-31G*
    Blend: 6-31G*
  Basis Set: (6-31G* AUX)
    Blend: CC-PVDZ-JKFIT
  @DF-RKS Final Energy:  -381.46813631199103
    Total Energy =                       -381.4681363119910884
  Basis Set: 6-31G*
    Blend: 6-31G*
  Basis Set: (6-31G* AUX)
    Blend: CC-PVDZ-JKFIT
  Charge       = 1
  Multiplicity = 1
  Basis Set: 6-31G*
    Blend: 6-31G*
  Basis Set: (6-31G* AUX)
    Blend: CC-PVDZ-JKFIT

    Orbital Energies [Eh]
    ---------------------

    Doubly Occupied:

       1A    -14.571994     2A    -14.571926     3A    -10.499466
       4A    -10.370397     5A    -10.352694     6A    -10.352162
       7A    -10.338245     8A    -10.337135     9A    -10.336971
      10A     -1.186834    11A     -1.095798    12A     -1.011581
      13A     -0.924301    14A     -0.898644    15A     -0.844957
      16A     -0.786719    17A     -0.769617    18A     -0.748605
      19A     -0.729955    20A     -0.689673    21A     -0.668192
      22A     -0.621298    23A     -0.620248    24A     -0.580956
      25A     -0.575983    26A     -0.569998    27A     -0.517370
      28A     -0.500963    29A     -0.494836    30A     -0.476087
      31A     -0.408391    32A     -0.402121

  @DF-RKS Final Energy:  -381.46813655406311

   => Energetics <=

    Nuclear Repulsion Energy =            416.7162519244603232
    One-Electron Energy =               -1328.7133841908334944
    Two-Electron Energy =                 574.9458546272456942
    DFT Exchange-Correlation Energy =     -44.4049439849355281
    Empirical Dispersion Energy =          -0.0119149300000000
    VV10 Nonlocal Energy =                  0.0000000000000000
    Total Energy =                       -381.4681365540630509
    Molecular point group: c1
  Basis Set: 6-31G*
    Blend: 6-31G*
  Basis Set: (6-31G* AUX)
    Blend: CC-PVDZ-JKFIT

  -Total Gradient:
     Atom            X                  Y                   Z
    ------   -----------------  -----------------  -----------------
       1        0.007489427639    -0.001919135615    -0.000192515766
       2       -0.004399489870     0.000075022642     0.000114618171
       3       -0.000017193517    -0.000000636835     0.000008525471
       4       -0.000005813441     0.000004835133    -0.000005868327
       5       -0.000001453092     0.000000075597    -0.000002323472
       6        0.000019235583     0.000001623693     0.000009337791
       7       -0.005352065033     0.005949165745     0.000141235293
       8       -0.000004813215     0.000003809571    -0.000002471735
       9        0.000003563010    -0.000001462747     0.000002007686
      10        0.000002783166    -0.000001741002     0.000003024934
      11       -0.000004765531    -0.000000945665     0.000005233319
      12       -0.000003169665    -0.000007195032    -0.000008911180
      13        0.002262104027    -0.004090540268    -0.000090316097
      14        0.000031495677    -0.000010262668    -0.000009667357
      15       -0.000001407542     0.000014713138     0.000000861597
      16       -0.000021349336    -0.000006102083     0.000018231430
      17        0.000008438674     0.000000428842     0.000006438118
      18        0.000006026439    -0.000004349227     0.000004827647

  **** Optimization is complete! (in 6 steps) ****
    Final optimized geometry and variables:
    Molecular point group: c1

    Geometry (in Angstrom), charge = 1, multiplicity = 1:

    C            0.049989772659     0.003531933622    -0.177226092258
    C            0.091067441188     1.221711941831     0.521108231638
    C            0.056736230885     1.210798383434     1.913650020965
    C           -0.018717152451    -0.003259777495     2.602102269291
    C           -0.073723750273    -1.213314691299     1.903419805863
    C           -0.059345918773    -1.216563937529     0.510987775864
    C            0.007931661157     0.015252839432    -1.650109791734
    H            0.130933103402     2.163390999991    -0.019353231838
    H            0.080314849402     2.148249444397     2.459851309875
    H           -0.039724301628    -0.006768305584     3.687542874263
    H           -0.129375173699    -2.153319986503     2.442925149252
    H           -0.094541009423    -2.154194838522    -0.036649151674
    N            1.000234471672     0.581158013621    -2.325009581202
    N           -0.989892431811    -0.594298720338    -2.276913497784
    H           -1.032005961440    -0.701620727933    -3.284483846390
    H           -1.771822598388    -0.945835804857    -1.738719562304
    H            1.794027800884     0.953386797848    -1.818996679001
    H            0.997913966636     0.691696435885    -3.333124002826

  Dipole Moment: [D]
     X:    -0.0756      Y:     0.0645      Z:    -6.0864     Total:     6.0872

  Mulliken Charges: (a.u.)
   Center  Symbol    Alpha    Beta     Spin     Total
       1     C     2.97731  2.97731  0.00000  0.04539
       2     C     3.07526  3.07526  0.00000 -0.15052
       3     C     3.06177  3.06177  0.00000 -0.12355
       4     C     3.05254  3.05254  0.00000 -0.10509
       5     C     3.06321  3.06321  0.00000 -0.12642
       6     C     3.07714  3.07714  0.00000 -0.15428
       7     C     2.73649  2.73649  0.00000  0.52703
       8     H     0.41341  0.41341  0.00000  0.17317
       9     H     0.40632  0.40632  0.00000  0.18737
      10     H     0.40525  0.40525  0.00000  0.18949
      11     H     0.40629  0.40629  0.00000  0.18741
      12     H     0.41331  0.41331  0.00000  0.17337
      13     N     3.85215  3.85215  0.00000 -0.70431
      14     N     3.85374  3.85374  0.00000 -0.70748
      15     H     0.30534  0.30534  0.00000  0.38931
      16     H     0.29767  0.29767  0.00000  0.40466
      17     H     0.29722  0.29722  0.00000  0.40555
      18     H     0.30556  0.30556  0.00000  0.38888

   Total alpha = 32.00000, Total beta = 32.00000, Total charge =  1.00000

*** Psi4 exiting successfully. Buy a developer a beer!
