                               Psi4 1.2.1 release

  ==> Input File <==

--------------------------------------------------------------------------
set_num_threads(1)
set_memory('5348 MB')

set { scf_mem_safety_factor 0.7 }

set { reference rks }
set { basis cc-pVDZ }

molecule MOL {
    0 1
    noreorient
    nocom
    symmetry c1
    O    1.050400   0.042900  -0.048100
    C    2.474100   0.047400  -0.029000
    C    3.002600  -1.068900  -0.932000
    N    4.287788  -1.590073  -0.469217
    H    0.760400   0.728400   0.578000
    H    2.809900  -0.097900   1.003200
    H    2.817400   1.026800  -0.378600
    H    3.101572  -0.699793  -1.959474
    H    2.269734  -1.882949  -0.967881
    H    4.996500  -0.861671  -0.550697
    H    4.583411  -2.338145  -1.096311
}

set optking { frozen_dihedral = (" 1 2 3 4 ") }

energy, wfn = energy('B3LYP-D3', return_wfn=True)

import os
os.chdir(os.environ['HTMD_PSI4_WORKDIR'])

oeprop(wfn, 'DIPOLE', 'QUADRUPOLE', 'MULLIKEN_CHARGES')

with open('psi4out.xyz', 'w') as f:
    f.write('11 ' )
    f.write('%.12f\n' % energy)
    f.write(MOL.save_string_xyz())
--------------------------------------------------------------------------

    Molecular point group: c1

    Geometry (in Angstrom), charge = 0, multiplicity = 1:

       Center              X                  Y                   Z               Mass
    ------------   -----------------  -----------------  -----------------  -----------------
         O            1.050400000000     0.042900000000    -0.048100000000    15.994914619560
         C            2.474100000000     0.047400000000    -0.029000000000    12.000000000000
         C            3.002600000000    -1.068900000000    -0.932000000000    12.000000000000
         N            4.287788000000    -1.590073000000    -0.469217000000    14.003074004780
         H            0.760400000000     0.728400000000     0.578000000000     1.007825032070
         H            2.809900000000    -0.097900000000     1.003200000000     1.007825032070
         H            2.817400000000     1.026800000000    -0.378600000000     1.007825032070
         H            3.101572000000    -0.699793000000    -1.959474000000     1.007825032070
         H            2.269734000000    -1.882949000000    -0.967881000000     1.007825032070
         H            4.996500000000    -0.861671000000    -0.550697000000     1.007825032070
         H            4.583411000000    -2.338145000000    -1.096311000000     1.007825032070

  Charge       = 0
  Multiplicity = 1
  Basis Set: CC-PVDZ
    Blend: CC-PVDZ
  Basis Set: (CC-PVDZ AUX)
    Blend: CC-PVDZ-JKFIT

    Orbital Energies [Eh]
    ---------------------

    Doubly Occupied:

       1A    -19.125836     2A    -14.304999     3A    -10.222221
       4A    -10.201123     5A     -1.008328     6A     -0.876887
       7A     -0.712077     8A     -0.596736     9A     -0.506564
      10A     -0.477093    11A     -0.468163    12A     -0.404741
      13A     -0.388501    14A     -0.365776    15A     -0.322840
      16A     -0.258766    17A     -0.231203

  @DF-RKS Final Energy:  -210.38869483388447

   => Energetics <=

    Nuclear Repulsion Energy =            130.5413193259008153
    One-Electron Energy =                -544.0334751066560557
    Two-Electron Energy =                 226.5962066124067178
    DFT Exchange-Correlation Energy =     -23.4879606755359589
    Empirical Dispersion Energy =          -0.0047849900000000
    VV10 Nonlocal Energy =                  0.0000000000000000
    Total Energy =                       -210.3886948338844718

  Dipole Moment: [D]
     X:     1.0556      Y:     1.2058      Z:    -0.3350     Total:     1.6372

  Mulliken Charges: (a.u.)
   Center  Symbol    Alpha    Beta     Spin     Total
       1     O     4.13996  4.13996  0.00000 -0.27993
       2     C     2.92943  2.92943  0.00000  0.14113
       3     C     2.98434  2.98434  0.00000  0.03133
       4     N     3.59159  3.59159  0.00000 -0.18318
       5     H     0.43056  0.43056  0.00000  0.13888
       6     H     0.49986  0.49986  0.00000  0.00028
       7     H     0.50364  0.50364  0.00000 -0.00727
       8     H     0.50254  0.50254  0.00000 -0.00507
       9     H     0.48763  0.48763  0.00000  0.02474
      10     H     0.46635  0.46635  0.00000  0.06730
      11     H     0.46410  0.46410  0.00000  0.07180

   Total alpha = 17.00000, Total beta = 17.00000, Total charge = -0.00000

*** Psi4 exiting successfully. Buy a developer a beer!
