                               Psi4 1.2.1 release

  ==> Input File <==

--------------------------------------------------------------------------
set_num_threads(1)
set_memory('5348 MB')

set { scf_mem_safety_factor 0.7 }

set { reference rks }
set { basis cc-pVDZ }

molecule MOL {
    0 1
    noreorient
    nocom
    symmetry c1
    O    1.050400   0.042900  -0.048100
    C    2.474100   0.047400  -0.029000
    C    3.002600  -1.068900  -0.932000
    N    2.226796  -1.194188  -2.164855
    H    0.760400   0.728400   0.578000
    H    2.809900  -0.097900   1.003200
    H    2.817400   1.026800  -0.378600
    H    2.991692  -2.021584  -0.389770
    H    4.051384  -0.868663  -1.179006
    H    1.280320  -1.498315  -1.938643
    H    2.630856  -1.939063  -2.732435
}

set optking { frozen_dihedral = (" 1 2 3 4 ") }

energy, wfn = energy('B3LYP-D3', return_wfn=True)

import os
os.chdir(os.environ['HTMD_PSI4_WORKDIR'])

oeprop(wfn, 'DIPOLE', 'QUADRUPOLE', 'MULLIKEN_CHARGES')

with open('psi4out.xyz', 'w') as f:
    f.write('11 ' )
    f.write('%.12f\n' % energy)
    f.write(MOL.save_string_xyz())
--------------------------------------------------------------------------

    Molecular point group: c1

    Geometry (in Angstrom), charge = 0, multiplicity = 1:

       Center              X                  Y                   Z               Mass
    ------------   -----------------  -----------------  -----------------  -----------------
         O            1.050400000000     0.042900000000    -0.048100000000    15.994914619560
         C            2.474100000000     0.047400000000    -0.029000000000    12.000000000000
         C            3.002600000000    -1.068900000000    -0.932000000000    12.000000000000
         N            2.226796000000    -1.194188000000    -2.164855000000    14.003074004780
         H            0.760400000000     0.728400000000     0.578000000000     1.007825032070
         H            2.809900000000    -0.097900000000     1.003200000000     1.007825032070
         H            2.817400000000     1.026800000000    -0.378600000000     1.007825032070
         H            2.991692000000    -2.021584000000    -0.389770000000     1.007825032070
         H            4.051384000000    -0.868663000000    -1.179006000000     1.007825032070
         H            1.280320000000    -1.498315000000    -1.938643000000     1.007825032070
         H            2.630856000000    -1.939063000000    -2.732435000000     1.007825032070

  Charge       = 0
  Multiplicity = 1
  Basis Set: CC-PVDZ
    Blend: CC-PVDZ
  Basis Set: (CC-PVDZ AUX)
    Blend: CC-PVDZ-JKFIT

    Orbital Energies [Eh]
    ---------------------

    Doubly Occupied:

       1A    -19.127987     2A    -14.293957     3A    -10.224013
       4A    -10.201938     5A     -1.010883     6A     -0.866672
       7A     -0.714217     8A     -0.591911     9A     -0.514969
      10A     -0.471082    11A     -0.455793    12A     -0.406219
      13A     -0.392574    14A     -0.358398    15A     -0.327100
      16A     -0.262889    17A     -0.220511

  @DF-RKS Final Energy:  -210.39071376064908

   => Energetics <=

    Nuclear Repulsion Energy =            133.6003799548601307
    One-Electron Energy =                -550.2173496833222544
    Two-Electron Energy =                 229.7181878927052878
    DFT Exchange-Correlation Energy =     -23.4868490448922813
    Empirical Dispersion Energy =          -0.0050828800000000
    VV10 Nonlocal Energy =                  0.0000000000000000
    Total Energy =                       -210.3907137606491062

  Dipole Moment: [D]
     X:     0.6003      Y:    -0.2050      Z:     1.3454     Total:     1.4874

  Mulliken Charges: (a.u.)
   Center  Symbol    Alpha    Beta     Spin     Total
       1     O     4.13974  4.13974  0.00000 -0.27947
       2     C     2.92544  2.92544  0.00000  0.14913
       3     C     2.98468  2.98468  0.00000  0.03063
       4     N     3.58941  3.58941  0.00000 -0.17881
       5     H     0.42921  0.42921  0.00000  0.14157
       6     H     0.50407  0.50407  0.00000 -0.00815
       7     H     0.49996  0.49996  0.00000  0.00008
       8     H     0.50400  0.50400  0.00000 -0.00800
       9     H     0.49503  0.49503  0.00000  0.00993
      10     H     0.46130  0.46130  0.00000  0.07740
      11     H     0.46715  0.46715  0.00000  0.06570

   Total alpha = 17.00000, Total beta = 17.00000, Total charge = -0.00000

*** Psi4 exiting successfully. Buy a developer a beer!
