                               Psi4 1.2.1 release

  ==> Input File <==

--------------------------------------------------------------------------
set_num_threads(1)
set_memory('5348 MB')

set { scf_mem_safety_factor 0.7 }

set { reference rks }
set { basis cc-pVDZ }

molecule MOL {
    0 1
    noreorient
    nocom
    symmetry c1
    O    1.141000   0.017000   0.083000
    C    2.558000   0.086000  -0.005000
    C    3.192000  -0.789000   1.067000
    O    4.177672  -0.051414   1.779591
    H    0.789000   0.590000  -0.620000
    H    2.874000   1.128000   0.115000
    H    2.871000  -0.243000  -1.001000
    H    3.659735  -1.669146   0.614779
    H    2.430657  -1.141856   1.771789
    H    4.547888  -0.654762   2.447272
}

set optking { frozen_dihedral = (" 1 2 3 4 ") }

energy, wfn = energy('B3LYP-D3', return_wfn=True)

import os
os.chdir(os.environ['HTMD_PSI4_WORKDIR'])

oeprop(wfn, 'DIPOLE', 'QUADRUPOLE', 'MULLIKEN_CHARGES')

with open('psi4out.xyz', 'w') as f:
    f.write('10 ' )
    f.write('%.12f\n' % energy)
    f.write(MOL.save_string_xyz())
--------------------------------------------------------------------------

    Molecular point group: c1

    Geometry (in Angstrom), charge = 0, multiplicity = 1:

       Center              X                  Y                   Z               Mass
    ------------   -----------------  -----------------  -----------------  -----------------
         O            1.141000000000     0.017000000000     0.083000000000    15.994914619560
         C            2.558000000000     0.086000000000    -0.005000000000    12.000000000000
         C            3.192000000000    -0.789000000000     1.067000000000    12.000000000000
         O            4.177672000000    -0.051414000000     1.779591000000    15.994914619560
         H            0.789000000000     0.590000000000    -0.620000000000     1.007825032070
         H            2.874000000000     1.128000000000     0.115000000000     1.007825032070
         H            2.871000000000    -0.243000000000    -1.001000000000     1.007825032070
         H            3.659735000000    -1.669146000000     0.614779000000     1.007825032070
         H            2.430657000000    -1.141856000000     1.771789000000     1.007825032070
         H            4.547888000000    -0.654762000000     2.447272000000     1.007825032070

  Charge       = 0
  Multiplicity = 1
  Basis Set: CC-PVDZ
    Blend: CC-PVDZ
  Basis Set: (CC-PVDZ AUX)
    Blend: CC-PVDZ-JKFIT

    Orbital Energies [Eh]
    ---------------------

    Doubly Occupied:

       1A    -19.129262     2A    -19.129228     3A    -10.225289
       4A    -10.225101     5A     -1.017646     6A     -1.005995
       7A     -0.732584     8A     -0.603243     9A     -0.522436
      10A     -0.501421    11A     -0.444264    12A     -0.411188
      13A     -0.403666    14A     -0.347387    15A     -0.320189
      16A     -0.265528    17A     -0.257444

  @DF-RKS Final Energy:  -230.25339732552911

   => Energetics <=

    Nuclear Repulsion Energy =            129.9125307214282827
    One-Electron Energy =                -571.6136969363883509
    Two-Electron Energy =                 235.9937656185415733
    DFT Exchange-Correlation Energy =     -24.5417418491106183
    Empirical Dispersion Energy =          -0.0042548800000000
    VV10 Nonlocal Energy =                  0.0000000000000000
    Total Energy =                       -230.2533973255290789

  Dipole Moment: [D]
     X:     0.3694      Y:    -0.5781      Z:    -0.6924     Total:     0.9748

  Mulliken Charges: (a.u.)
   Center  Symbol    Alpha    Beta     Spin     Total
       1     O     4.14042  4.14042  0.00000 -0.28085
       2     C     2.93380  2.93380  0.00000  0.13241
       3     C     2.93398  2.93398  0.00000  0.13204
       4     O     4.14066  4.14066  0.00000 -0.28132
       5     H     0.42987  0.42987  0.00000  0.14026
       6     H     0.49444  0.49444  0.00000  0.01112
       7     H     0.50140  0.50140  0.00000 -0.00281
       8     H     0.50126  0.50126  0.00000 -0.00252
       9     H     0.49435  0.49435  0.00000  0.01130
      10     H     0.42982  0.42982  0.00000  0.14037

   Total alpha = 17.00000, Total beta = 17.00000, Total charge =  0.00000

*** Psi4 exiting successfully. Buy a developer a beer!
