                               Psi4 1.2.1 release

  ==> Input File <==

--------------------------------------------------------------------------
set_num_threads(4)
set_memory('3000 MB')

set { scf_mem_safety_factor 0.7 }

set { reference rks }
set { basis 6-31G* }

molecule MOL {
    1 1
    noreorient
    nocom
    symmetry c1
    C   -0.000000  -0.000000  -0.177864
    C    0.036678   1.219374   0.524165
    C    0.031765   1.213120   1.915444
    C    0.000000   0.000000   2.610107
    C   -0.031765  -1.213120   1.915444
    C   -0.036678  -1.219375   0.524165
    C   -0.000000   0.000000  -1.644734
    H    0.018170   2.164705  -0.010854
    H    0.042402   2.152895   2.457886
    H    0.000000   0.000000   3.695756
    H   -0.042402  -2.152895   2.457886
    H   -0.018170  -2.164705  -0.010853
    N    0.234187   1.128577  -2.308460
    N   -0.234187  -1.128577  -2.308461
    H   -0.154337  -1.201112  -3.315997
    H   -0.570662  -1.943991  -1.813317
    H    0.570662   1.943991  -1.813316
    H    0.154337   1.201113  -3.315996
}

set optking { frozen_dihedral = (" 2 1 7 13 ") }

set optking { dynamic_level = 1
 geom_maxiter = 250
 print_trajectory_xyz_file = True }

energy, wfn = optimize('B3LYP-D3', return_wfn=True)

import os
os.chdir(os.environ['HTMD_PSI4_WORKDIR'])

oeprop(wfn, 'DIPOLE', 'QUADRUPOLE', 'MULLIKEN_CHARGES')

with open('psi4out.xyz', 'w') as f:
    f.write('18 ' )
    f.write('%.12f\n' % energy)
    f.write(MOL.save_string_xyz())
--------------------------------------------------------------------------

    Molecular point group: c1
  Charge       = 1
  Multiplicity = 1
  Basis Set: 6-31G*
    Blend: 6-31G*
  Basis Set: (6-31G* AUX)
    Blend: CC-PVDZ-JKFIT
  @DF-RKS Final Energy:  -381.46614215274110
    Total Energy =                       -381.4661421527410994
    Molecular point group: c1
  Basis Set: 6-31G*
    Blend: 6-31G*
  Basis Set: (6-31G* AUX)
    Blend: CC-PVDZ-JKFIT
  Basis Set: 6-31G*
    Blend: 6-31G*
  Basis Set: (6-31G* AUX)
    Blend: CC-PVDZ-JKFIT
  @DF-RKS Final Energy:  -381.46715322376406
    Total Energy =                       -381.4671532237640577
  Basis Set: 6-31G*
    Blend: 6-31G*
  Basis Set: (6-31G* AUX)
    Blend: CC-PVDZ-JKFIT
  Basis Set: 6-31G*
    Blend: 6-31G*
  @DF-RKS Final Energy:  -381.46752260862434
    Total Energy =                       -381.4675226086243356
  @DF-RKS Final Energy:  -381.46753977138701
    Total Energy =                       -381.4675397713869529
  @DF-RKS Final Energy:  -381.46754863890578
    Total Energy =                       -381.4675486389058392
  Basis Set: (6-31G* AUX)
    Blend: CC-PVDZ-JKFIT
  Basis Set: 6-31G*
    Blend: 6-31G*
  Basis Set: (6-31G* AUX)
    Blend: CC-PVDZ-JKFIT
  @DF-RKS Final Energy:  -381.46755005074374
    Total Energy =                       -381.4675500507436823
  Basis Set: 6-31G*
    Blend: 6-31G*
  Basis Set: (6-31G* AUX)
    Blend: CC-PVDZ-JKFIT
  Charge       = 1
  Multiplicity = 1
  Basis Set: 6-31G*
    Blend: 6-31G*
  Basis Set: (6-31G* AUX)
    Blend: CC-PVDZ-JKFIT

    Orbital Energies [Eh]
    ---------------------

    Doubly Occupied:

       1A    -14.565652     2A    -14.565373     3A    -10.497670
       4A    -10.376725     5A    -10.360169     6A    -10.359818
       7A    -10.346277     8A    -10.342646     9A    -10.342603
      10A     -1.182971    11A     -1.089380    12A     -1.016664
      13A     -0.928537    14A     -0.905247    15A     -0.847462
      16A     -0.786117    17A     -0.776095    18A     -0.737542
      19A     -0.736335    20A     -0.688090    21A     -0.669372
      22A     -0.630643    23A     -0.611380    24A     -0.597444
      25A     -0.581742    26A     -0.576298    27A     -0.518401
      28A     -0.509139    29A     -0.500637    30A     -0.471418
      31A     -0.413487    32A     -0.407838

  @DF-RKS Final Energy:  -381.46755015468750

   => Energetics <=

    Nuclear Repulsion Energy =            416.7172210098207756
    One-Electron Energy =               -1328.5430418065725462
    Two-Electron Energy =                 574.7770117350063401
    DFT Exchange-Correlation Energy =     -44.4071527829421910
    Empirical Dispersion Energy =          -0.0115883100000000
    VV10 Nonlocal Energy =                  0.0000000000000000
    Total Energy =                       -381.4675501546875580
    Molecular point group: c1
  Basis Set: 6-31G*
    Blend: 6-31G*
  Basis Set: (6-31G* AUX)
    Blend: CC-PVDZ-JKFIT

  -Total Gradient:
     Atom            X                  Y                   Z
    ------   -----------------  -----------------  -----------------
       1       -0.009522620737     0.000804975817    -0.000362120956
       2        0.004836752333    -0.000198056143     0.000207329369
       3       -0.000004248834     0.000002897945    -0.000008602720
       4        0.000003125451    -0.000001316939    -0.000004302565
       5        0.000011736343     0.000004860864    -0.000004350793
       6       -0.000002689652     0.000006973557     0.000006440016
       7        0.009735538840    -0.001729511306     0.000357659679
       8       -0.000011664460    -0.000000347772     0.000009643108
       9        0.000000628710     0.000001555513    -0.000003014915
      10       -0.000002666400     0.000001615497    -0.000000114429
      11       -0.000003578574    -0.000001243841    -0.000003462553
      12       -0.000015024736    -0.000004570821    -0.000005832732
      13       -0.005017566369     0.001113970848    -0.000201644411
      14       -0.000022860410     0.000009109360    -0.000000195273
      15        0.000005343803     0.000000813114     0.000003772600
      16        0.000007716680    -0.000006418798     0.000009234271
      17       -0.000001705075    -0.000006612160    -0.000007353975
      18        0.000004718533     0.000002027430     0.000001740356

  **** Optimization is complete! (in 7 steps) ****
    Final optimized geometry and variables:
    Molecular point group: c1

    Geometry (in Angstrom), charge = 1, multiplicity = 1:

    C           -0.045633132239     0.001189488716    -0.176454222921
    C           -0.020823311308     1.215996572718     0.538028897637
    C           -0.001716492213     1.211846948590     1.927726319591
    C            0.009006722514     0.000337525823     2.625013330971
    C            0.008213934814    -1.210729913074     1.927532651043
    C           -0.005176650563    -1.213671875447     0.537520482410
    C            0.006169386464    -0.003740955609    -1.643663958164
    H           -0.084790861766     2.171130705852     0.025467977628
    H           -0.002879631892     2.153264803954     2.467181851916
    H            0.024090351688     0.000317577668     3.710512043575
    H            0.036642913280    -2.152168225230     2.466214190732
    H            0.061254021131    -2.167688876661     0.023182983012
    N            0.275307355746     1.112063336597    -2.321610065054
    N           -0.288225398095    -1.107934630696    -2.328712252903
    H           -0.212858527117    -1.155880811495    -3.337327227119
    H           -0.691062602604    -1.911825206948    -1.868318868781
    H            0.684742690089     1.910833563768    -1.857936159446
    H            0.247739232070     1.146659971475    -3.333356974126

  Dipole Moment: [D]
     X:     0.1277      Y:    -0.0436      Z:    -5.5118     Total:     5.5134

  Mulliken Charges: (a.u.)
   Center  Symbol    Alpha    Beta     Spin     Total
       1     C     2.93466  2.93466  0.00000  0.13069
       2     C     3.08766  3.08766  0.00000 -0.17533
       3     C     3.06134  3.06134  0.00000 -0.12268
       4     C     3.05136  3.05136  0.00000 -0.10272
       5     C     3.06121  3.06121  0.00000 -0.12243
       6     C     3.08623  3.08623  0.00000 -0.17246
       7     C     2.70844  2.70844  0.00000  0.58312
       8     H     0.41815  0.41815  0.00000  0.16371
       9     H     0.40499  0.40499  0.00000  0.19002
      10     H     0.40279  0.40279  0.00000  0.19441
      11     H     0.40497  0.40497  0.00000  0.19007
      12     H     0.41887  0.41887  0.00000  0.16226
      13     N     3.87330  3.87330  0.00000 -0.74659
      14     N     3.87229  3.87229  0.00000 -0.74458
      15     H     0.30590  0.30590  0.00000  0.38820
      16     H     0.30034  0.30034  0.00000  0.39932
      17     H     0.30138  0.30138  0.00000  0.39723
      18     H     0.30612  0.30612  0.00000  0.38777

   Total alpha = 32.00000, Total beta = 32.00000, Total charge =  1.00000

*** Psi4 exiting successfully. Buy a developer a beer!
