                               Psi4 1.2.1 release

  ==> Input File <==

--------------------------------------------------------------------------
set_num_threads(4)
set_memory('3000 MB')

set { scf_mem_safety_factor 0.7 }

set { reference rks }
set { basis 6-31G* }

molecule MOL {
    1 1
    noreorient
    nocom
    symmetry c1
    C   -0.000000  -0.000000  -0.177864
    C    0.036678   1.219374   0.524165
    C    0.031765   1.213120   1.915444
    C    0.000000   0.000000   2.610107
    C   -0.031765  -1.213120   1.915444
    C   -0.036678  -1.219375   0.524165
    C   -0.000000   0.000000  -1.644734
    H    0.018170   2.164705  -0.010854
    H    0.042402   2.152895   2.457886
    H    0.000000   0.000000   3.695756
    H   -0.042402  -2.152895   2.457886
    H   -0.018170  -2.164705  -0.010853
    N   -0.904833  -0.714007  -2.308461
    N    0.904833   0.714007  -2.308460
    H    0.890289   0.820900  -3.315997
    H    1.686726   1.122369  -1.813316
    H   -1.686726  -1.122369  -1.813317
    H   -0.890289  -0.820900  -3.315997
}

set optking { frozen_dihedral = (" 2 1 7 13 ") }

set optking { dynamic_level = 1
 geom_maxiter = 250
 print_trajectory_xyz_file = True }

energy, wfn = optimize('B3LYP-D3', return_wfn=True)

import os
os.chdir(os.environ['HTMD_PSI4_WORKDIR'])

oeprop(wfn, 'DIPOLE', 'QUADRUPOLE', 'MULLIKEN_CHARGES')

with open('psi4out.xyz', 'w') as f:
    f.write('18 ' )
    f.write('%.12f\n' % energy)
    f.write(MOL.save_string_xyz())
--------------------------------------------------------------------------

    Molecular point group: c1
  Charge       = 1
  Multiplicity = 1
  Basis Set: 6-31G*
    Blend: 6-31G*
  Basis Set: (6-31G* AUX)
    Blend: CC-PVDZ-JKFIT
  @DF-RKS Final Energy:  -381.46921516627668
    Total Energy =                       -381.4692151662766264
    Molecular point group: c1
  Basis Set: 6-31G*
    Blend: 6-31G*
  Basis Set: (6-31G* AUX)
    Blend: CC-PVDZ-JKFIT
  Basis Set: 6-31G*
    Blend: 6-31G*
  Basis Set: (6-31G* AUX)
    Blend: CC-PVDZ-JKFIT
  @DF-RKS Final Energy:  -381.46955498884626
    Total Energy =                       -381.4695549888462551
  Basis Set: 6-31G*
    Blend: 6-31G*
  Basis Set: (6-31G* AUX)
    Blend: CC-PVDZ-JKFIT
  Basis Set: 6-31G*
    Blend: 6-31G*
  @DF-RKS Final Energy:  -381.46966560223609
    Total Energy =                       -381.4696656022360912
  @DF-RKS Final Energy:  -381.46967409626501
    Total Energy =                       -381.4696740962650097
  Basis Set: (6-31G* AUX)
    Blend: CC-PVDZ-JKFIT
  Basis Set: 6-31G*
    Blend: 6-31G*
  Basis Set: (6-31G* AUX)
    Blend: CC-PVDZ-JKFIT
  @DF-RKS Final Energy:  -381.46967577583763
    Total Energy =                       -381.4696757758375725
  Basis Set: 6-31G*
    Blend: 6-31G*
  Basis Set: (6-31G* AUX)
    Blend: CC-PVDZ-JKFIT
  Charge       = 1
  Multiplicity = 1
  Basis Set: 6-31G*
    Blend: 6-31G*
  Basis Set: (6-31G* AUX)
    Blend: CC-PVDZ-JKFIT

    Orbital Energies [Eh]
    ---------------------

    Doubly Occupied:

       1A    -14.570121     2A    -14.569980     3A    -10.498163
       4A    -10.371625     5A    -10.354344     6A    -10.353911
       7A    -10.340497     8A    -10.338735     9A    -10.338642
      10A     -1.185298    11A     -1.093999    12A     -1.012859
      13A     -0.925384    14A     -0.900334    15A     -0.845005
      16A     -0.786179    17A     -0.771479    18A     -0.745438
      19A     -0.731144    20A     -0.689134    21A     -0.668678
      22A     -0.622651    23A     -0.619695    24A     -0.583327
      25A     -0.577386    26A     -0.571313    27A     -0.517963
      28A     -0.503091    29A     -0.496399    30A     -0.474429
      31A     -0.410022    32A     -0.403887

  @DF-RKS Final Energy:  -381.46967591309033

   => Energetics <=

    Nuclear Repulsion Energy =            416.8776710334555560
    One-Electron Energy =               -1329.0047748112547197
    Two-Electron Energy =                 575.0749456010785252
    DFT Exchange-Correlation Energy =     -44.4055328563696889
    Empirical Dispersion Energy =          -0.0119848800000000
    VV10 Nonlocal Energy =                  0.0000000000000000
    Total Energy =                       -381.4696759130903843
    Molecular point group: c1
  Basis Set: 6-31G*
    Blend: 6-31G*
  Basis Set: (6-31G* AUX)
    Blend: CC-PVDZ-JKFIT

  -Total Gradient:
     Atom            X                  Y                   Z
    ------   -----------------  -----------------  -----------------
       1        0.003431398411     0.000955256189    -0.000039188517
       2       -0.002916231010     0.000071519279     0.000031791839
       3       -0.000013748111    -0.000002955788     0.000009286489
       4       -0.000005910604     0.000011235047    -0.000005405600
       5       -0.000001247959    -0.000008080557    -0.000011375840
       6        0.000014342867     0.000005296250     0.000016189164
       7        0.001445518169    -0.003446272854    -0.000067730968
       8       -0.000004241170     0.000000306045    -0.000000454312
       9        0.000004455319    -0.000001089872     0.000000047454
      10        0.000004972213    -0.000000110588     0.000000880033
      11       -0.000000907005     0.000001519778     0.000001750862
      12        0.000001001600    -0.000000564759    -0.000005436908
      13       -0.001945489956     0.002409718651     0.000044719595
      14       -0.000011398417     0.000011264068     0.000006213345
      15        0.000002243986    -0.000008387940     0.000000413143
      16       -0.000000386232    -0.000006004921    -0.000001303033
      17       -0.000007471055     0.000000586791     0.000000351594
      18       -0.000004466748     0.000003662547    -0.000001099244

  **** Optimization is complete! (in 6 steps) ****
    Final optimized geometry and variables:
    Molecular point group: c1

    Geometry (in Angstrom), charge = 1, multiplicity = 1:

    C            0.045380565714    -0.010188410183    -0.177943090981
    C            0.082628809624     1.212246256692     0.515679992152
    C            0.048840536253     1.209610707756     1.907544118467
    C           -0.016981822126    -0.000675981019     2.604227794305
    C           -0.060562501447    -1.215725359898     1.913312439133
    C           -0.043692044511    -1.226671910429     0.521543741347
    C            0.020646914623    -0.008451366984    -1.647540677369
    H            0.104756327310     2.152318739212    -0.028328676809
    H            0.064260565002     2.150630253672     2.447829352308
    H           -0.037983228095     0.002889846149     3.689673767102
    H           -0.104466043994    -2.152824843221     2.458804088845
    H           -0.056349835197    -2.170073594447    -0.017389313224
    N           -0.890456600446    -0.731509832206    -2.288539093566
    N            0.880220775549     0.751481640125    -2.316840544236
    H            0.846703216446     0.873648076731    -3.322626422050
    H            1.637820444349     1.202849178282    -1.820367589856
    H           -1.613503934805    -1.203957803552    -1.761208694249
    H           -0.907262144249    -0.835596596681    -3.296831191317

  Dipole Moment: [D]
     X:    -0.0323      Y:     0.0053      Z:    -5.9119     Total:     5.9120

  Mulliken Charges: (a.u.)
   Center  Symbol    Alpha    Beta     Spin     Total
       1     C     2.96839  2.96839  0.00000  0.06323
       2     C     3.07728  3.07728  0.00000 -0.15455
       3     C     3.06224  3.06224  0.00000 -0.12448
       4     C     3.05197  3.05197  0.00000 -0.10395
       5     C     3.06297  3.06297  0.00000 -0.12595
       6     C     3.08030  3.08030  0.00000 -0.16059
       7     C     2.73023  2.73023  0.00000  0.53954
       8     H     0.41358  0.41358  0.00000  0.17285
       9     H     0.40586  0.40586  0.00000  0.18828
      10     H     0.40461  0.40461  0.00000  0.19078
      11     H     0.40588  0.40588  0.00000  0.18825
      12     H     0.41358  0.41358  0.00000  0.17285
      13     N     3.85687  3.85687  0.00000 -0.71374
      14     N     3.85822  3.85822  0.00000 -0.71644
      15     H     0.30557  0.30557  0.00000  0.38887
      16     H     0.29848  0.29848  0.00000  0.40305
      17     H     0.29844  0.29844  0.00000  0.40313
      18     H     0.30556  0.30556  0.00000  0.38887

   Total alpha = 32.00000, Total beta = 32.00000, Total charge =  1.00000

*** Psi4 exiting successfully. Buy a developer a beer!
