                               Psi4 1.2.1 release

  ==> Input File <==

--------------------------------------------------------------------------
set_num_threads(4)
set_memory('3000 MB')

set { scf_mem_safety_factor 0.7 }

set { reference rks }
set { basis 6-31G* }

molecule MOL {
    1 1
    noreorient
    nocom
    symmetry c1
    C   -0.000000  -0.000000  -0.177864
    C    0.036678   1.219374   0.524165
    C    0.031765   1.213120   1.915444
    C    0.000000   0.000000   2.610107
    C   -0.031765  -1.213120   1.915444
    C   -0.036678  -1.219375   0.524165
    C   -0.000000   0.000000  -1.644734
    H    0.018170   2.164705  -0.010854
    H    0.042402   2.152895   2.457886
    H    0.000000   0.000000   3.695756
    H   -0.042402  -2.152895   2.457886
    H   -0.018170  -2.164705  -0.010853
    N    0.165932  -1.140612  -2.308461
    N   -0.165932   1.140612  -2.308460
    H   -0.265775   1.181463  -3.315997
    H   -0.128637   2.021932  -1.813316
    H    0.128637  -2.021932  -1.813317
    H    0.265775  -1.181463  -3.315997
}

set optking { frozen_dihedral = (" 2 1 7 13 ") }

set optking { dynamic_level = 1
 geom_maxiter = 250
 print_trajectory_xyz_file = True }

energy, wfn = optimize('B3LYP-D3', return_wfn=True)

import os
os.chdir(os.environ['HTMD_PSI4_WORKDIR'])

oeprop(wfn, 'DIPOLE', 'QUADRUPOLE', 'MULLIKEN_CHARGES')

with open('psi4out.xyz', 'w') as f:
    f.write('18 ' )
    f.write('%.12f\n' % energy)
    f.write(MOL.save_string_xyz())
--------------------------------------------------------------------------

    Molecular point group: c1
  Charge       = 1
  Multiplicity = 1
  Basis Set: 6-31G*
    Blend: 6-31G*
  Basis Set: (6-31G* AUX)
    Blend: CC-PVDZ-JKFIT
  @DF-RKS Final Energy:  -381.46304776447113
    Total Energy =                       -381.4630477644711277
    Molecular point group: c1
  Basis Set: 6-31G*
    Blend: 6-31G*
  Basis Set: (6-31G* AUX)
    Blend: CC-PVDZ-JKFIT
  Basis Set: 6-31G*
    Blend: 6-31G*
  Basis Set: (6-31G* AUX)
    Blend: CC-PVDZ-JKFIT
  @DF-RKS Final Energy:  -381.46517449957292
    Total Energy =                       -381.4651744995729246
  Basis Set: 6-31G*
    Blend: 6-31G*
  Basis Set: (6-31G* AUX)
    Blend: CC-PVDZ-JKFIT
  Basis Set: 6-31G*
    Blend: 6-31G*
  @DF-RKS Final Energy:  -381.46601940247797
    Total Energy =                       -381.4660194024779685
  @DF-RKS Final Energy:  -381.46517449957383
    Total Energy =                       -381.4651744995737772
  @DF-RKS Final Energy:  -381.46613378079115
    Total Energy =                       -381.4661337807911536
  @DF-RKS Final Energy:  -381.46681044929960
    Total Energy =                       -381.4668104492996008
  @DF-RKS Final Energy:  -381.46727629228093
    Total Energy =                       -381.4672762922808715
  @DF-RKS Final Energy:  -381.46747365371021
    Total Energy =                       -381.4674736537102717
  @DF-RKS Final Energy:  -381.46751979267907
    Total Energy =                       -381.4675197926790702
  @DF-RKS Final Energy:  -381.46752407045312
    Total Energy =                       -381.4675240704531234
  Basis Set: (6-31G* AUX)
    Blend: CC-PVDZ-JKFIT
  Basis Set: 6-31G*
    Blend: 6-31G*
  Basis Set: (6-31G* AUX)
    Blend: CC-PVDZ-JKFIT
  @DF-RKS Final Energy:  -381.46752646812246
    Total Energy =                       -381.4675264681224007
  Basis Set: 6-31G*
    Blend: 6-31G*
  Basis Set: (6-31G* AUX)
    Blend: CC-PVDZ-JKFIT
  Charge       = 1
  Multiplicity = 1
  Basis Set: 6-31G*
    Blend: 6-31G*
  Basis Set: (6-31G* AUX)
    Blend: CC-PVDZ-JKFIT

    Orbital Energies [Eh]
    ---------------------

    Doubly Occupied:

       1A    -14.565688     2A    -14.565357     3A    -10.497758
       4A    -10.376783     5A    -10.360045     6A    -10.359959
       7A    -10.346233     8A    -10.342686     9A    -10.342534
      10A     -1.183029    11A     -1.089393    12A     -1.016667
      13A     -0.928540    14A     -0.905254    15A     -0.847490
      16A     -0.786151    17A     -0.776126    18A     -0.737589
      19A     -0.736323    20A     -0.688135    21A     -0.669386
      22A     -0.630704    23A     -0.611320    24A     -0.597564
      25A     -0.581751    26A     -0.576315    27A     -0.518394
      28A     -0.509151    29A     -0.500640    30A     -0.471439
      31A     -0.413455    32A     -0.407829

  @DF-RKS Final Energy:  -381.46752678704240

   => Energetics <=

    Nuclear Repulsion Energy =            416.7441561736123958
    One-Electron Energy =               -1328.5957773863574403
    Two-Electron Energy =                 574.8029151884346675
    DFT Exchange-Correlation Energy =     -44.4072343027320358
    Empirical Dispersion Energy =          -0.0115864600000000
    VV10 Nonlocal Energy =                  0.0000000000000000
    Total Energy =                       -381.4675267870424022
    Molecular point group: c1
  Basis Set: 6-31G*
    Blend: 6-31G*
  Basis Set: (6-31G* AUX)
    Blend: CC-PVDZ-JKFIT

  -Total Gradient:
     Atom            X                  Y                   Z
    ------   -----------------  -----------------  -----------------
       1        0.004901347905    -0.000506630362    -0.000128461939
       2       -0.004873642492     0.000113966332     0.000141962317
       3       -0.000012121139    -0.000000982048    -0.000009227093
       4       -0.000001666494     0.000000397529    -0.000017616444
       5        0.000002469154     0.000006276767    -0.000006919229
       6        0.000000575620    -0.000032276694     0.000014916724
       7        0.005073429036     0.001236102822    -0.000076579249
       8        0.000001520158    -0.000013928868    -0.000004283888
       9        0.000003724600    -0.000003179132     0.000006826706
      10        0.000002661134     0.000000729617     0.000001806087
      11       -0.000005363442     0.000003800956     0.000004850139
      12        0.000009564932     0.000014882881    -0.000018418487
      13       -0.005088027570    -0.000860906679     0.000122004445
      14       -0.000022694156     0.000041453626    -0.000046131369
      15        0.000016293225    -0.000013493083     0.000004363526
      16        0.000008505222    -0.000014277688     0.000005954674
      17       -0.000003745555     0.000014193372    -0.000004510800
      18       -0.000009903991     0.000016891122     0.000003103065

  **** Optimization is complete! (in 9 steps) ****
    Final optimized geometry and variables:
    Molecular point group: c1

    Geometry (in Angstrom), charge = 1, multiplicity = 1:

    C            0.071516109633    -0.000088082011    -0.176031534640
    C            0.106075225595     1.214286574180     0.538848549420
    C            0.061423476713     1.212519754931     1.927904905243
    C           -0.028798869728     0.003769638142     2.624170392577
    C           -0.080823560128    -1.205819055115     1.926146285121
    C           -0.042465628518    -1.210921984970     0.536538766750
    C            0.038065678452    -0.000043697691    -1.643963021715
    H            0.233605384308     2.164134892072     0.027852636637
    H            0.105191553015     2.152695703597     2.467741207240
    H           -0.063616192381     0.005044034778     3.709214622840
    H           -0.169499208874    -2.144045205984     2.463893971956
    H           -0.149400472103    -2.160329384343     0.021124559671
    N            0.204482921137    -1.131381154323    -2.329489621790
    N           -0.228555918470     1.117438893970    -2.318387353927
    H           -0.210987656941     1.155833886385    -3.330088388720
    H           -0.555413457815     1.945706376138    -1.841656041882
    H            0.594699041828    -1.950726598780    -1.885331064136
    H            0.114501574278    -1.168075590977    -3.337488870644

  Dipole Moment: [D]
     X:    -0.0161      Y:     0.0060      Z:    -5.5165     Total:     5.5166

  Mulliken Charges: (a.u.)
   Center  Symbol    Alpha    Beta     Spin     Total
       1     C     2.93438  2.93438  0.00000  0.13125
       2     C     3.08872  3.08872  0.00000 -0.17743
       3     C     3.06166  3.06166  0.00000 -0.12332
       4     C     3.05128  3.05128  0.00000 -0.10255
       5     C     3.06108  3.06108  0.00000 -0.12216
       6     C     3.08492  3.08492  0.00000 -0.16984
       7     C     2.70847  2.70847  0.00000  0.58306
       8     H     0.41809  0.41809  0.00000  0.16381
       9     H     0.40500  0.40500  0.00000  0.19001
      10     H     0.40281  0.40281  0.00000  0.19437
      11     H     0.40497  0.40497  0.00000  0.19006
      12     H     0.41898  0.41898  0.00000  0.16204
      13     N     3.87293  3.87293  0.00000 -0.74586
      14     N     3.87289  3.87289  0.00000 -0.74578
      15     H     0.30596  0.30596  0.00000  0.38809
      16     H     0.30070  0.30070  0.00000  0.39860
      17     H     0.30109  0.30109  0.00000  0.39781
      18     H     0.30607  0.30607  0.00000  0.38785

   Total alpha = 32.00000, Total beta = 32.00000, Total charge =  1.00000

*** Psi4 exiting successfully. Buy a developer a beer!
