                               Psi4 1.2.1 release

  ==> Input File <==

--------------------------------------------------------------------------
set_num_threads(4)
set_memory('3000 MB')

set { scf_mem_safety_factor 0.7 }

set { reference rks }
set { basis 6-31G* }

molecule MOL {
    1 1
    noreorient
    nocom
    symmetry c1
    C   -0.000000  -0.000000  -0.177864
    C    0.036678   1.219374   0.524165
    C    0.031765   1.213120   1.915444
    C    0.000000   0.000000   2.610107
    C   -0.031765  -1.213120   1.915444
    C   -0.036678  -1.219375   0.524165
    C   -0.000000   0.000000  -1.644734
    H    0.018170   2.164705  -0.010854
    H    0.042402   2.152895   2.457886
    H    0.000000   0.000000   3.695756
    H   -0.042402  -2.152895   2.457886
    H   -0.018170  -2.164705  -0.010853
    N    1.140612   0.165932  -2.308460
    N   -1.140612  -0.165932  -2.308461
    H   -1.181463  -0.265775  -3.315997
    H   -2.021932  -0.128637  -1.813317
    H    2.021932   0.128637  -1.813316
    H    1.181463   0.265776  -3.315997
}

set optking { frozen_dihedral = (" 2 1 7 13 ") }

set optking { dynamic_level = 1
 geom_maxiter = 250
 print_trajectory_xyz_file = True }

energy, wfn = optimize('B3LYP-D3', return_wfn=True)

import os
os.chdir(os.environ['HTMD_PSI4_WORKDIR'])

oeprop(wfn, 'DIPOLE', 'QUADRUPOLE', 'MULLIKEN_CHARGES')

with open('psi4out.xyz', 'w') as f:
    f.write('18 ' )
    f.write('%.12f\n' % energy)
    f.write(MOL.save_string_xyz())
--------------------------------------------------------------------------

    Molecular point group: c1
  Charge       = 1
  Multiplicity = 1
  Basis Set: 6-31G*
    Blend: 6-31G*
  Basis Set: (6-31G* AUX)
    Blend: CC-PVDZ-JKFIT
  @DF-RKS Final Energy:  -381.46298610028356
    Total Energy =                       -381.4629861002835582
    Molecular point group: c1
  Basis Set: 6-31G*
    Blend: 6-31G*
  Basis Set: (6-31G* AUX)
    Blend: CC-PVDZ-JKFIT
  Basis Set: 6-31G*
    Blend: 6-31G*
  Basis Set: (6-31G* AUX)
    Blend: CC-PVDZ-JKFIT
  @DF-RKS Final Energy:  -381.46437723626514
    Total Energy =                       -381.4643772362651362
  Basis Set: 6-31G*
    Blend: 6-31G*
  Basis Set: (6-31G* AUX)
    Blend: CC-PVDZ-JKFIT
  Basis Set: 6-31G*
    Blend: 6-31G*
  @DF-RKS Final Energy:  -381.46463207526631
    Total Energy =                       -381.4646320752663087
  @DF-RKS Final Energy:  -381.46465132000088
    Total Energy =                       -381.4646513200008826
  Basis Set: (6-31G* AUX)
    Blend: CC-PVDZ-JKFIT
  Basis Set: 6-31G*
    Blend: 6-31G*
  Basis Set: (6-31G* AUX)
    Blend: CC-PVDZ-JKFIT
  @DF-RKS Final Energy:  -381.46465547597342
    Total Energy =                       -381.4646554759734158
  Basis Set: 6-31G*
    Blend: 6-31G*
  Basis Set: (6-31G* AUX)
    Blend: CC-PVDZ-JKFIT
  Charge       = 1
  Multiplicity = 1
  Basis Set: 6-31G*
    Blend: 6-31G*
  Basis Set: (6-31G* AUX)
    Blend: CC-PVDZ-JKFIT

    Orbital Energies [Eh]
    ---------------------

    Doubly Occupied:

       1A    -14.576169     2A    -14.576039     3A    -10.502885
       4A    -10.368079     5A    -10.348969     6A    -10.348862
       7A    -10.333790     8A    -10.333558     9A    -10.332879
      10A     -1.190479    11A     -1.099599    12A     -1.008807
      13A     -0.921991    14A     -0.895078    15A     -0.845546
      16A     -0.788100    17A     -0.765757    18A     -0.754638
      19A     -0.728116    20A     -0.691758    21A     -0.666885
      22A     -0.623534    23A     -0.615886    24A     -0.577724
      25A     -0.573090    26A     -0.567282    27A     -0.515479
      28A     -0.496617    29A     -0.491584    30A     -0.479917
      31A     -0.404620    32A     -0.398286

  @DF-RKS Final Energy:  -381.46465576255633

   => Energetics <=

    Nuclear Repulsion Energy =            416.2501852104023783
    One-Electron Energy =               -1327.8395335546586011
    Two-Electron Energy =                 574.5404537589736265
    DFT Exchange-Correlation Energy =     -44.4040796172737160
    Empirical Dispersion Energy =          -0.0116815600000000
    VV10 Nonlocal Energy =                  0.0000000000000000
    Total Energy =                       -381.4646557625563332
    Molecular point group: c1
  Basis Set: 6-31G*
    Blend: 6-31G*
  Basis Set: (6-31G* AUX)
    Blend: CC-PVDZ-JKFIT

  -Total Gradient:
     Atom            X                  Y                   Z
    ------   -----------------  -----------------  -----------------
       1        0.004802367093    -0.001517776501    -0.000075833022
       2       -0.003111883320     0.000064292467     0.000056488242
       3       -0.000008350986    -0.000000472222     0.000001036613
       4       -0.000011644495     0.000001993980    -0.000006443064
       5       -0.000000464235    -0.000000927576     0.000001751385
       6        0.000002458656    -0.000004713552    -0.000005620658
       7       -0.002168443462     0.004750453389     0.000020594465
       8       -0.000004910777     0.000000676171    -0.000000052976
       9        0.000000810461    -0.000002302222     0.000000948403
      10        0.000004502805    -0.000001037767     0.000000925901
      11       -0.000002473175     0.000000670997     0.000001605353
      12        0.000003600310    -0.000000352111    -0.000002472955
      13        0.000501425356    -0.003273793565     0.000008449312
      14        0.000006378098    -0.000029267974    -0.000002681515
      15       -0.000002118192     0.000013613695     0.000010237083
      16        0.000004174539     0.000011018761    -0.000002930860
      17       -0.000023350832    -0.000006483543    -0.000016972518
      18        0.000000548156    -0.000001813180    -0.000001290780

  **** Optimization is complete! (in 6 steps) ****
    Final optimized geometry and variables:
    Molecular point group: c1

    Geometry (in Angstrom), charge = 1, multiplicity = 1:

    C            0.040919869101     0.007793810880    -0.173961371676
    C            0.082512963869     1.225529333573     0.520089170964
    C            0.054704249961     1.212170158693     1.913967970708
    C           -0.016754867412    -0.001924433932     2.601830528366
    C           -0.069837800518    -1.210756173332     1.902457043676
    C           -0.054937844527    -1.213822178579     0.508605334652
    C            0.012213550661     0.013151477849    -1.656806430375
    H            0.132685655049     2.166839044476    -0.019940725668
    H            0.084950054236     2.149387820422     2.460373388744
    H           -0.034887633570    -0.006201200539     3.687283216923
    H           -0.126691765156    -2.151623027416     2.440452542583
    H           -0.100096740278    -2.150124631199    -0.040429411782
    N            1.141515258329     0.189798259997    -2.324671600110
    N           -1.136467364096    -0.206145366398    -2.277340746680
    H           -1.227015523112    -0.263627764704    -3.286521519642
    H           -1.980432610070    -0.311844103811    -1.727919216558
    H            2.003804060774     0.316761022036    -1.809250321861
    H            1.193816486759     0.234637951984    -3.337217852261

  Dipole Moment: [D]
     X:    -0.0405      Y:     0.0279      Z:    -6.4877     Total:     6.4879

  Mulliken Charges: (a.u.)
   Center  Symbol    Alpha    Beta     Spin     Total
       1     C     2.99251  2.99251  0.00000  0.01497
       2     C     3.07107  3.07107  0.00000 -0.14213
       3     C     3.06248  3.06248  0.00000 -0.12495
       4     C     3.05360  3.05360  0.00000 -0.10721
       5     C     3.06304  3.06304  0.00000 -0.12609
       6     C     3.07128  3.07128  0.00000 -0.14255
       7     C     2.74677  2.74677  0.00000  0.50646
       8     H     0.41356  0.41356  0.00000  0.17288
       9     H     0.40732  0.40732  0.00000  0.18537
      10     H     0.40668  0.40668  0.00000  0.18663
      11     H     0.40730  0.40730  0.00000  0.18541
      12     H     0.41363  0.41363  0.00000  0.17274
      13     N     3.84480  3.84480  0.00000 -0.68960
      14     N     3.84496  3.84496  0.00000 -0.68992
      15     H     0.30500  0.30500  0.00000  0.39000
      16     H     0.29556  0.29556  0.00000  0.40888
      17     H     0.29536  0.29536  0.00000  0.40927
      18     H     0.30508  0.30508  0.00000  0.38984

   Total alpha = 32.00000, Total beta = 32.00000, Total charge =  1.00000

*** Psi4 exiting successfully. Buy a developer a beer!
