                               Psi4 1.2.1 release

  ==> Input File <==

--------------------------------------------------------------------------
set_num_threads(1)
set_memory('5348 MB')

set { scf_mem_safety_factor 0.7 }

set { reference rks }
set { basis cc-pVDZ }

molecule MOL {
    0 1
    noreorient
    nocom
    symmetry c1
    O    1.014300  -0.002300   0.060500
    O    2.462400  -0.107500  -0.002400
    H    0.821200  -0.823600  -0.430600
    H    2.626283   0.036253   0.949080
}

set optking { frozen_dihedral = (" 3 1 2 4 ") }

set optking { dynamic_level = 1
 geom_maxiter = 250
 print_trajectory_xyz_file = True }

energy, wfn = optimize('B3LYP-D3', return_wfn=True)

import os
os.chdir(os.environ['HTMD_PSI4_WORKDIR'])

oeprop(wfn, 'DIPOLE', 'QUADRUPOLE', 'MULLIKEN_CHARGES')

with open('psi4out.xyz', 'w') as f:
    f.write('4 ' )
    f.write('%.12f\n' % energy)
    f.write(MOL.save_string_xyz())
--------------------------------------------------------------------------

    Molecular point group: c1
  Charge       = 0
  Multiplicity = 1
  Basis Set: CC-PVDZ
    Blend: CC-PVDZ
  Basis Set: (CC-PVDZ AUX)
    Blend: CC-PVDZ-JKFIT
  @DF-RKS Final Energy:  -151.55035388334412
    Total Energy =                       -151.5503538833441155
    Molecular point group: c1
  Basis Set: CC-PVDZ
    Blend: CC-PVDZ
  Basis Set: (CC-PVDZ AUX)
    Blend: CC-PVDZ-JKFIT
  Basis Set: CC-PVDZ
    Blend: CC-PVDZ
  Basis Set: (CC-PVDZ AUX)
    Blend: CC-PVDZ-JKFIT
  @DF-RKS Final Energy:  -151.55067719029316
    Total Energy =                       -151.5506771902931291
  Basis Set: CC-PVDZ
    Blend: CC-PVDZ
  Basis Set: (CC-PVDZ AUX)
    Blend: CC-PVDZ-JKFIT
  Basis Set: CC-PVDZ
    Blend: CC-PVDZ
  @DF-RKS Final Energy:  -151.55101060192979
    Total Energy =                       -151.5510106019297893
  Basis Set: (CC-PVDZ AUX)
    Blend: CC-PVDZ-JKFIT
  Basis Set: CC-PVDZ
    Blend: CC-PVDZ
  Basis Set: (CC-PVDZ AUX)
    Blend: CC-PVDZ-JKFIT
  @DF-RKS Final Energy:  -151.55101256955692
    Total Energy =                       -151.5510125695568888
  Basis Set: CC-PVDZ
    Blend: CC-PVDZ
  Basis Set: (CC-PVDZ AUX)
    Blend: CC-PVDZ-JKFIT
  Charge       = 0
  Multiplicity = 1
  Basis Set: CC-PVDZ
    Blend: CC-PVDZ
  Basis Set: (CC-PVDZ AUX)
    Blend: CC-PVDZ-JKFIT

    Orbital Energies [Eh]
    ---------------------

    Doubly Occupied:

       1A    -19.186624     2A    -19.186585     3A     -1.107313
       4A     -0.889644     5A     -0.512746     6A     -0.488933
       7A     -0.404211     8A     -0.324220     9A     -0.258711

  @DF-RKS Final Energy:  -151.55101278634075

   => Energetics <=

    Nuclear Repulsion Energy =             36.6849873533288218
    One-Electron Energy =                -281.3695682776545937
    Two-Electron Energy =                 107.5960321925386154
    DFT Exchange-Correlation Energy =     -14.4621121645536075
    Empirical Dispersion Energy =          -0.0003518900000000
    VV10 Nonlocal Energy =                  0.0000000000000000
    Total Energy =                       -151.5510127863407490
    Molecular point group: c1
  Basis Set: CC-PVDZ
    Blend: CC-PVDZ
  Basis Set: (CC-PVDZ AUX)
    Blend: CC-PVDZ-JKFIT

  -Total Gradient:
     Atom            X                  Y                   Z
    ------   -----------------  -----------------  -----------------
       1       -0.000007282211    -0.000278865141     0.000559031181
       2       -0.000031575450    -0.000621741859     0.000052822967
       3        0.000013916881     0.000315577682    -0.000517065842
       4        0.000025440297     0.000596615866    -0.000102662728

  **** Optimization is complete! (in 5 steps) ****
    Final optimized geometry and variables:
    Molecular point group: c1

    Geometry (in Angstrom), charge = 0, multiplicity = 1:

    O            1.011718751164    -0.013831245216     0.047100475678
    O            2.464827790570    -0.099438140079     0.013312130567
    H            0.794018626991    -0.826825364530    -0.440799302980
    H            2.653617831275     0.042947749825     0.956966696735

  Dipole Moment: [D]
     X:    -0.0505      Y:    -1.1707      Z:     0.7956     Total:     1.4163

  Mulliken Charges: (a.u.)
   Center  Symbol    Alpha    Beta     Spin     Total
       1     O     4.09039  4.09039  0.00000 -0.18077
       2     O     4.09039  4.09039  0.00000 -0.18077
       3     H     0.40961  0.40961  0.00000  0.18077
       4     H     0.40961  0.40961  0.00000  0.18077

   Total alpha =  9.00000, Total beta =  9.00000, Total charge =  0.00000

*** Psi4 exiting successfully. Buy a developer a beer!
