                               Psi4 1.2.1 release

  ==> Input File <==

--------------------------------------------------------------------------
set_num_threads(1)
set_memory('5348 MB')

set { scf_mem_safety_factor 0.7 }

set { reference rks }
set { basis cc-pVDZ }

molecule MOL {
    0 1
    noreorient
    nocom
    symmetry c1
    O    1.141000   0.017000   0.083000
    C    2.558000   0.086000  -0.005000
    C    3.192000  -0.789000   1.067000
    O    3.608313   0.010844   2.167137
    H    0.789000   0.590000  -0.620000
    H    2.874000   1.128000   0.115000
    H    2.871000  -0.243000  -1.001000
    H    4.058329  -1.321779   0.662576
    H    2.475658  -1.538899   1.421096
    H    4.003685  -0.595162   2.817770
}

set optking { frozen_dihedral = (" 1 2 3 4 ") }

energy, wfn = energy('B3LYP-D3', return_wfn=True)

import os
os.chdir(os.environ['HTMD_PSI4_WORKDIR'])

oeprop(wfn, 'DIPOLE', 'QUADRUPOLE', 'MULLIKEN_CHARGES')

with open('psi4out.xyz', 'w') as f:
    f.write('10 ' )
    f.write('%.12f\n' % energy)
    f.write(MOL.save_string_xyz())
--------------------------------------------------------------------------

    Molecular point group: c1

    Geometry (in Angstrom), charge = 0, multiplicity = 1:

       Center              X                  Y                   Z               Mass
    ------------   -----------------  -----------------  -----------------  -----------------
         O            1.141000000000     0.017000000000     0.083000000000    15.994914619560
         C            2.558000000000     0.086000000000    -0.005000000000    12.000000000000
         C            3.192000000000    -0.789000000000     1.067000000000    12.000000000000
         O            3.608313000000     0.010844000000     2.167137000000    15.994914619560
         H            0.789000000000     0.590000000000    -0.620000000000     1.007825032070
         H            2.874000000000     1.128000000000     0.115000000000     1.007825032070
         H            2.871000000000    -0.243000000000    -1.001000000000     1.007825032070
         H            4.058329000000    -1.321779000000     0.662576000000     1.007825032070
         H            2.475658000000    -1.538899000000     1.421096000000     1.007825032070
         H            4.003685000000    -0.595162000000     2.817770000000     1.007825032070

  Charge       = 0
  Multiplicity = 1
  Basis Set: CC-PVDZ
    Blend: CC-PVDZ
  Basis Set: (CC-PVDZ AUX)
    Blend: CC-PVDZ-JKFIT

    Orbital Energies [Eh]
    ---------------------

    Doubly Occupied:

       1A    -19.126935     2A    -19.126897     3A    -10.225937
       4A    -10.225750     5A     -1.016763     6A     -1.003117
       7A     -0.733105     8A     -0.603106     9A     -0.515971
      10A     -0.510738    11A     -0.428078    12A     -0.417207
      13A     -0.409537    14A     -0.344927    15A     -0.319167
      16A     -0.267116    17A     -0.254357

  @DF-RKS Final Energy:  -230.25450572956171

   => Energetics <=

    Nuclear Repulsion Energy =            130.5700812441969845
    One-Electron Energy =                -572.9584249236002051
    Two-Electron Energy =                 236.6783399483901746
    DFT Exchange-Correlation Energy =     -24.5402193985486932
    Empirical Dispersion Energy =          -0.0042826000000000
    VV10 Nonlocal Energy =                  0.0000000000000000
    Total Energy =                       -230.2545057295617141

  Dipole Moment: [D]
     X:     0.8637      Y:    -0.6335      Z:    -1.0300     Total:     1.4860

  Mulliken Charges: (a.u.)
   Center  Symbol    Alpha    Beta     Spin     Total
       1     O     4.13885  4.13885  0.00000 -0.27769
       2     C     2.93167  2.93167  0.00000  0.13666
       3     C     2.93185  2.93185  0.00000  0.13630
       4     O     4.13909  4.13909  0.00000 -0.27819
       5     H     0.43098  0.43098  0.00000  0.13804
       6     H     0.49448  0.49448  0.00000  0.01104
       7     H     0.50396  0.50396  0.00000 -0.00792
       8     H     0.50382  0.50382  0.00000 -0.00764
       9     H     0.49438  0.49438  0.00000  0.01124
      10     H     0.43093  0.43093  0.00000  0.13815

   Total alpha = 17.00000, Total beta = 17.00000, Total charge =  0.00000

*** Psi4 exiting successfully. Buy a developer a beer!
