                               Psi4 1.2.1 release

  ==> Input File <==

--------------------------------------------------------------------------
set_num_threads(1)
set_memory('5348 MB')

set { scf_mem_safety_factor 0.7 }

set { reference rks }
set { basis cc-pVDZ }

molecule MOL {
    0 1
    noreorient
    nocom
    symmetry c1
    O    1.050400   0.042900  -0.048100
    C    2.474100   0.047400  -0.029000
    C    3.002600  -1.068900  -0.932000
    N    2.983497  -0.690881  -2.344174
    H    0.760400   0.728400   0.578000
    H    2.809900  -0.097900   1.003200
    H    2.817400   1.026800  -0.378600
    H    2.408527  -1.978335  -0.784544
    H    4.027076  -1.320334  -0.634871
    H    2.017707  -0.574293  -2.649360
    H    3.358898  -1.462530  -2.895428
}

set optking { frozen_dihedral = (" 1 2 3 4 ") }

energy, wfn = energy('B3LYP-D3', return_wfn=True)

import os
os.chdir(os.environ['HTMD_PSI4_WORKDIR'])

oeprop(wfn, 'DIPOLE', 'QUADRUPOLE', 'MULLIKEN_CHARGES')

with open('psi4out.xyz', 'w') as f:
    f.write('11 ' )
    f.write('%.12f\n' % energy)
    f.write(MOL.save_string_xyz())
--------------------------------------------------------------------------

    Molecular point group: c1

    Geometry (in Angstrom), charge = 0, multiplicity = 1:

       Center              X                  Y                   Z               Mass
    ------------   -----------------  -----------------  -----------------  -----------------
         O            1.050400000000     0.042900000000    -0.048100000000    15.994914619560
         C            2.474100000000     0.047400000000    -0.029000000000    12.000000000000
         C            3.002600000000    -1.068900000000    -0.932000000000    12.000000000000
         N            2.983497000000    -0.690881000000    -2.344174000000    14.003074004780
         H            0.760400000000     0.728400000000     0.578000000000     1.007825032070
         H            2.809900000000    -0.097900000000     1.003200000000     1.007825032070
         H            2.817400000000     1.026800000000    -0.378600000000     1.007825032070
         H            2.408527000000    -1.978335000000    -0.784544000000     1.007825032070
         H            4.027076000000    -1.320334000000    -0.634871000000     1.007825032070
         H            2.017707000000    -0.574293000000    -2.649360000000     1.007825032070
         H            3.358898000000    -1.462530000000    -2.895428000000     1.007825032070

  Charge       = 0
  Multiplicity = 1
  Basis Set: CC-PVDZ
    Blend: CC-PVDZ
  Basis Set: (CC-PVDZ AUX)
    Blend: CC-PVDZ-JKFIT

    Orbital Energies [Eh]
    ---------------------

    Doubly Occupied:

       1A    -19.126890     2A    -14.298494     3A    -10.222615
       4A    -10.202033     5A     -1.009799     6A     -0.871156
       7A     -0.713321     8A     -0.594227     9A     -0.512691
      10A     -0.476496    11A     -0.455306    12A     -0.403441
      13A     -0.394301    14A     -0.363655    15A     -0.325327
      16A     -0.260953    17A     -0.226648

  @DF-RKS Final Energy:  -210.39260295248519

   => Energetics <=

    Nuclear Repulsion Energy =            132.2289267286065240
    One-Electron Energy =                -547.4460332925087869
    Two-Electron Energy =                 228.3160354052598962
    DFT Exchange-Correlation Energy =     -23.4865274338428485
    Empirical Dispersion Energy =          -0.0050043600000000
    VV10 Nonlocal Energy =                  0.0000000000000000
    Total Energy =                       -210.3926029524851629

  Dipole Moment: [D]
     X:     0.0723      Y:    -0.1525      Z:     0.8353     Total:     0.8522

  Mulliken Charges: (a.u.)
   Center  Symbol    Alpha    Beta     Spin     Total
       1     O     4.14168  4.14168  0.00000 -0.28335
       2     C     2.92895  2.92895  0.00000  0.14210
       3     C     2.97847  2.97847  0.00000  0.04305
       4     N     3.59217  3.59217  0.00000 -0.18435
       5     H     0.43061  0.43061  0.00000  0.13879
       6     H     0.50420  0.50420  0.00000 -0.00841
       7     H     0.49919  0.49919  0.00000  0.00161
       8     H     0.49991  0.49991  0.00000  0.00018
       9     H     0.49579  0.49579  0.00000  0.00843
      10     H     0.46233  0.46233  0.00000  0.07534
      11     H     0.46670  0.46670  0.00000  0.06660

   Total alpha = 17.00000, Total beta = 17.00000, Total charge =  0.00000

*** Psi4 exiting successfully. Buy a developer a beer!
