                               Psi4 1.2.1 release

  ==> Input File <==

--------------------------------------------------------------------------
set_num_threads(4)
set_memory('3000 MB')

set { scf_mem_safety_factor 0.7 }

set { reference rks }
set { basis 6-31G* }

molecule MOL {
    1 1
    noreorient
    nocom
    symmetry c1
    C   -0.000000  -0.000000  -0.177864
    C    0.036678   1.219374   0.524165
    C    0.031765   1.213120   1.915444
    C    0.000000   0.000000   2.610107
    C   -0.031765  -1.213120   1.915444
    C   -0.036678  -1.219375   0.524165
    C   -0.000000   0.000000  -1.644734
    H    0.018170   2.164705  -0.010854
    H    0.042402   2.152895   2.457886
    H    0.000000   0.000000   3.695756
    H   -0.042402  -2.152895   2.457886
    H   -0.018170  -2.164705  -0.010853
    N    0.767101   0.860283  -2.308460
    N   -0.767101  -0.860282  -2.308461
    H   -0.734216  -0.963025  -3.315997
    H   -1.466204  -1.398215  -1.813317
    H    1.466204   1.398215  -1.813316
    H    0.734216   0.963026  -3.315996
}

set optking { frozen_dihedral = (" 2 1 7 13 ") }

set optking { dynamic_level = 1
 geom_maxiter = 250
 print_trajectory_xyz_file = True }

energy, wfn = optimize('B3LYP-D3', return_wfn=True)

import os
os.chdir(os.environ['HTMD_PSI4_WORKDIR'])

oeprop(wfn, 'DIPOLE', 'QUADRUPOLE', 'MULLIKEN_CHARGES')

with open('psi4out.xyz', 'w') as f:
    f.write('18 ' )
    f.write('%.12f\n' % energy)
    f.write(MOL.save_string_xyz())
--------------------------------------------------------------------------

    Molecular point group: c1
  Charge       = 1
  Multiplicity = 1
  Basis Set: 6-31G*
    Blend: 6-31G*
  Basis Set: (6-31G* AUX)
    Blend: CC-PVDZ-JKFIT
  @DF-RKS Final Energy:  -381.47041208646266
    Total Energy =                       -381.4704120864626589
    Molecular point group: c1
  Basis Set: 6-31G*
    Blend: 6-31G*
  Basis Set: (6-31G* AUX)
    Blend: CC-PVDZ-JKFIT
  Basis Set: 6-31G*
    Blend: 6-31G*
  Basis Set: (6-31G* AUX)
    Blend: CC-PVDZ-JKFIT
  @DF-RKS Final Energy:  -381.47043112457391
    Total Energy =                       -381.4704311245738495
  Basis Set: 6-31G*
    Blend: 6-31G*
  Basis Set: (6-31G* AUX)
    Blend: CC-PVDZ-JKFIT
  Basis Set: 6-31G*
    Blend: 6-31G*
  Basis Set: (6-31G* AUX)
    Blend: CC-PVDZ-JKFIT
  @DF-RKS Final Energy:  -381.47044771771351
    Total Energy =                       -381.4704477177135118
  Basis Set: 6-31G*
    Blend: 6-31G*
  Basis Set: (6-31G* AUX)
    Blend: CC-PVDZ-JKFIT
  Charge       = 1
  Multiplicity = 1
  Basis Set: 6-31G*
    Blend: 6-31G*
  Basis Set: (6-31G* AUX)
    Blend: CC-PVDZ-JKFIT

    Orbital Energies [Eh]
    ---------------------

    Doubly Occupied:

       1A    -14.568526     2A    -14.568517     3A    -10.497352
       4A    -10.372754     5A    -10.355655     6A    -10.355548
       7A    -10.342360     8A    -10.339997     9A    -10.339933
      10A     -1.184155    11A     -1.092455    12A     -1.013893
      13A     -0.926282    14A     -0.901714    15A     -0.845253
      16A     -0.785795    17A     -0.772926    18A     -0.742608
      19A     -0.732394    20A     -0.688913    21A     -0.668976
      22A     -0.624758    23A     -0.617901    24A     -0.585898
      25A     -0.578593    26A     -0.572428    27A     -0.518251
      28A     -0.504871    29A     -0.497648    30A     -0.473241
      31A     -0.411279    32A     -0.405255

  @DF-RKS Final Energy:  -381.47044845630228

   => Energetics <=

    Nuclear Repulsion Energy =            416.9162323459600543
    One-Electron Energy =               -1329.0532230384962986
    Two-Electron Energy =                 575.0843657674455471
    DFT Exchange-Correlation Energy =     -44.4058634512115162
    Empirical Dispersion Energy =          -0.0119600800000000
    VV10 Nonlocal Energy =                  0.0000000000000000
    Total Energy =                       -381.4704484563022788
    Molecular point group: c1
  Basis Set: 6-31G*
    Blend: 6-31G*
  Basis Set: (6-31G* AUX)
    Blend: CC-PVDZ-JKFIT

  -Total Gradient:
     Atom            X                  Y                   Z
    ------   -----------------  -----------------  -----------------
       1        0.001525245301    -0.000321964946    -0.000032229450
       2       -0.000807137669     0.000048646694     0.000033584409
       3        0.000012440087    -0.000009975065     0.000000212938
       4       -0.000010594656     0.000005431400    -0.000004744168
       5       -0.000010147238     0.000003075831    -0.000002512828
       6        0.000009641133    -0.000023541131     0.000019701685
       7       -0.001445400221     0.000911892314     0.000034950989
       8        0.000007012429    -0.000012839178    -0.000009335948
       9       -0.000016318551     0.000000085564     0.000001060469
      10        0.000004662795     0.000002926999    -0.000003300327
      11        0.000005759523     0.000000833837    -0.000001726027
      12        0.000009484538     0.000011808785    -0.000003692123
      13        0.000631446337    -0.000570699257    -0.000020612769
      14        0.000036043484    -0.000013838484    -0.000017586830
      15        0.000006360324    -0.000005948962    -0.000005583675
      16        0.000015883021     0.000010050085    -0.000001995339
      17        0.000012758689    -0.000025960821     0.000002882895
      18        0.000011914700    -0.000010902781    -0.000009163022

  **** Optimization is complete! (in 4 steps) ****
    Final optimized geometry and variables:
    Molecular point group: c1

    Geometry (in Angstrom), charge = 1, multiplicity = 1:

    C            0.008418489819     0.000095906495    -0.177907709657
    C            0.045595460022     1.219631165515     0.523094976604
    C            0.035120550145     1.212917912737     1.914574649492
    C           -0.004053908289    -0.000355322581     2.608458850606
    C           -0.039312785337    -1.213331729126     1.913583698691
    C           -0.040916003739    -1.219546758130     0.522142237921
    C            0.000550289484     0.002289216882    -1.645317230902
    H            0.036870467390     2.164007080367    -0.013908119966
    H            0.046970221609     2.152397743708     2.457543167869
    H           -0.007894317273    -0.000662609576     3.694104391994
    H           -0.057018426207    -2.153021650425     2.456028833734
    H           -0.030849485020    -2.163730173140    -0.015145456184
    N            0.762454102933     0.866387743286    -2.309108709800
    N           -0.758516422332    -0.867737066826    -2.304559250306
    H           -0.729848527603    -0.971902711443    -3.312219296735
    H           -1.445333753117    -1.416042612354    -1.803404011926
    H            1.449804929500     1.416422271713    -1.810548914495
    H            0.727959118015     0.972182592899    -3.316411106941

  Dipole Moment: [D]
     X:    -0.0134      Y:     0.0100      Z:    -5.7763     Total:     5.7763

  Mulliken Charges: (a.u.)
   Center  Symbol    Alpha    Beta     Spin     Total
       1     C     2.96014  2.96014  0.00000  0.07972
       2     C     3.08109  3.08109  0.00000 -0.16219
       3     C     3.06242  3.06242  0.00000 -0.12484
       4     C     3.05159  3.05159  0.00000 -0.10317
       5     C     3.06266  3.06266  0.00000 -0.12531
       6     C     3.08138  3.08138  0.00000 -0.16276
       7     C     2.72412  2.72412  0.00000  0.55177
       8     H     0.41400  0.41400  0.00000  0.17200
       9     H     0.40554  0.40554  0.00000  0.18892
      10     H     0.40407  0.40407  0.00000  0.19187
      11     H     0.40554  0.40554  0.00000  0.18892
      12     H     0.41393  0.41393  0.00000  0.17215
      13     N     3.86153  3.86153  0.00000 -0.72306
      14     N     3.86198  3.86198  0.00000 -0.72397
      15     H     0.30565  0.30565  0.00000  0.38870
      16     H     0.29941  0.29941  0.00000  0.40118
      17     H     0.29928  0.29928  0.00000  0.40144
      18     H     0.30568  0.30568  0.00000  0.38865

   Total alpha = 32.00000, Total beta = 32.00000, Total charge =  1.00000

*** Psi4 exiting successfully. Buy a developer a beer!
