                               Psi4 1.2.1 release

  ==> Input File <==

--------------------------------------------------------------------------
set_num_threads(1)
set_memory('5348 MB')

set { scf_mem_safety_factor 0.7 }

set { reference rks }
set { basis cc-pVDZ }

molecule MOL {
    0 1
    noreorient
    nocom
    symmetry c1
    O    1.050400   0.042900  -0.048100
    C    2.474100   0.047400  -0.029000
    C    3.002600  -1.068900  -0.932000
    N    2.769019  -0.789396  -2.347916
    H    0.760400   0.728400   0.578000
    H    2.809900  -0.097900   1.003200
    H    2.817400   1.026800  -0.378600
    H    2.531389  -2.020675  -0.660296
    H    4.076826  -1.197708  -0.757346
    H    1.766035  -0.789223  -2.530957
    H    3.153303  -1.555199  -2.901200
}

set optking { frozen_dihedral = (" 1 2 3 4 ") }

energy, wfn = energy('B3LYP-D3', return_wfn=True)

import os
os.chdir(os.environ['HTMD_PSI4_WORKDIR'])

oeprop(wfn, 'DIPOLE', 'QUADRUPOLE', 'MULLIKEN_CHARGES')

with open('psi4out.xyz', 'w') as f:
    f.write('11 ' )
    f.write('%.12f\n' % energy)
    f.write(MOL.save_string_xyz())
--------------------------------------------------------------------------

    Molecular point group: c1

    Geometry (in Angstrom), charge = 0, multiplicity = 1:

       Center              X                  Y                   Z               Mass
    ------------   -----------------  -----------------  -----------------  -----------------
         O            1.050400000000     0.042900000000    -0.048100000000    15.994914619560
         C            2.474100000000     0.047400000000    -0.029000000000    12.000000000000
         C            3.002600000000    -1.068900000000    -0.932000000000    12.000000000000
         N            2.769019000000    -0.789396000000    -2.347916000000    14.003074004780
         H            0.760400000000     0.728400000000     0.578000000000     1.007825032070
         H            2.809900000000    -0.097900000000     1.003200000000     1.007825032070
         H            2.817400000000     1.026800000000    -0.378600000000     1.007825032070
         H            2.531389000000    -2.020675000000    -0.660296000000     1.007825032070
         H            4.076826000000    -1.197708000000    -0.757346000000     1.007825032070
         H            1.766035000000    -0.789223000000    -2.530957000000     1.007825032070
         H            3.153303000000    -1.555199000000    -2.901200000000     1.007825032070

  Charge       = 0
  Multiplicity = 1
  Basis Set: CC-PVDZ
    Blend: CC-PVDZ
  Basis Set: (CC-PVDZ AUX)
    Blend: CC-PVDZ-JKFIT

    Orbital Energies [Eh]
    ---------------------

    Doubly Occupied:

       1A    -19.127661     2A    -14.297440     3A    -10.223197
       4A    -10.202354     5A     -1.010426     6A     -0.870055
       7A     -0.713607     8A     -0.593776     9A     -0.513500
      10A     -0.473769    11A     -0.457279    12A     -0.402719
      13A     -0.395118    14A     -0.362955    15A     -0.326122
      16A     -0.261372    17A     -0.226000

  @DF-RKS Final Energy:  -210.39376190511300

   => Energetics <=

    Nuclear Repulsion Energy =            132.5693680364793181
    One-Electron Energy =                -548.1297855127686489
    Two-Electron Energy =                 228.6572366712344149
    DFT Exchange-Correlation Energy =     -23.4854863100580609
    Empirical Dispersion Energy =          -0.0050947900000000
    VV10 Nonlocal Energy =                  0.0000000000000000
    Total Energy =                       -210.3937619051129673

  Dipole Moment: [D]
     X:     0.1790      Y:    -0.1992      Z:     0.9887     Total:     1.0244

  Mulliken Charges: (a.u.)
   Center  Symbol    Alpha    Beta     Spin     Total
       1     O     4.14146  4.14146  0.00000 -0.28291
       2     C     2.92817  2.92817  0.00000  0.14365
       3     C     2.97938  2.97938  0.00000  0.04123
       4     N     3.59196  3.59196  0.00000 -0.18392
       5     H     0.42999  0.42999  0.00000  0.14002
       6     H     0.50426  0.50426  0.00000 -0.00852
       7     H     0.49931  0.49931  0.00000  0.00137
       8     H     0.50116  0.50116  0.00000 -0.00231
       9     H     0.49567  0.49567  0.00000  0.00865
      10     H     0.46196  0.46196  0.00000  0.07609
      11     H     0.46668  0.46668  0.00000  0.06665

   Total alpha = 17.00000, Total beta = 17.00000, Total charge =  0.00000

*** Psi4 exiting successfully. Buy a developer a beer!
