                               Psi4 1.2.1 release

  ==> Input File <==

--------------------------------------------------------------------------
set_num_threads(4)
set_memory('3000 MB')

set { scf_mem_safety_factor 0.7 }

set { reference rks }
set { basis 6-31G* }

molecule MOL {
    1 1
    noreorient
    nocom
    symmetry c1
    C   -0.000000  -0.000000  -0.177864
    C    0.036678   1.219374   0.524165
    C    0.031765   1.213120   1.915444
    C    0.000000   0.000000   2.610107
    C   -0.031765  -1.213120   1.915444
    C   -0.036678  -1.219375   0.524165
    C   -0.000000   0.000000  -1.644734
    H    0.018170   2.164705  -0.010854
    H    0.042402   2.152895   2.457886
    H    0.000000   0.000000   3.695756
    H   -0.042402  -2.152895   2.457886
    H   -0.018170  -2.164705  -0.010853
    N    0.714007  -0.904833  -2.308461
    N   -0.714007   0.904833  -2.308460
    H   -0.820900   0.890290  -3.315997
    H   -1.122369   1.686726  -1.813316
    H    1.122369  -1.686726  -1.813317
    H    0.820900  -0.890289  -3.315997
}

set optking { frozen_dihedral = (" 2 1 7 13 ") }

set optking { dynamic_level = 1
 geom_maxiter = 250
 print_trajectory_xyz_file = True }

energy, wfn = optimize('B3LYP-D3', return_wfn=True)

import os
os.chdir(os.environ['HTMD_PSI4_WORKDIR'])

oeprop(wfn, 'DIPOLE', 'QUADRUPOLE', 'MULLIKEN_CHARGES')

with open('psi4out.xyz', 'w') as f:
    f.write('18 ' )
    f.write('%.12f\n' % energy)
    f.write(MOL.save_string_xyz())
--------------------------------------------------------------------------

    Molecular point group: c1
  Charge       = 1
  Multiplicity = 1
  Basis Set: 6-31G*
    Blend: 6-31G*
  Basis Set: (6-31G* AUX)
    Blend: CC-PVDZ-JKFIT
  @DF-RKS Final Energy:  -381.46525559429460
    Total Energy =                       -381.4652555942946606
    Molecular point group: c1
  Basis Set: 6-31G*
    Blend: 6-31G*
  Basis Set: (6-31G* AUX)
    Blend: CC-PVDZ-JKFIT
  Basis Set: 6-31G*
    Blend: 6-31G*
  Basis Set: (6-31G* AUX)
    Blend: CC-PVDZ-JKFIT
  @DF-RKS Final Energy:  -381.46875959374029
    Total Energy =                       -381.4687595937402875
  Basis Set: 6-31G*
    Blend: 6-31G*
  Basis Set: (6-31G* AUX)
    Blend: CC-PVDZ-JKFIT
  Basis Set: 6-31G*
    Blend: 6-31G*
  @DF-RKS Final Energy:  -381.47014845566991
    Total Energy =                       -381.4701484556699143
  @DF-RKS Final Energy:  -381.47042910239020
    Total Energy =                       -381.4704291023901988
  @DF-RKS Final Energy:  -381.47044127979558
    Total Energy =                       -381.4704412797955797
  Basis Set: (6-31G* AUX)
    Blend: CC-PVDZ-JKFIT
  Basis Set: 6-31G*
    Blend: 6-31G*
  Basis Set: (6-31G* AUX)
    Blend: CC-PVDZ-JKFIT
  @DF-RKS Final Energy:  -381.47044868339668
    Total Energy =                       -381.4704486833966257
  Basis Set: 6-31G*
    Blend: 6-31G*
  Basis Set: (6-31G* AUX)
    Blend: CC-PVDZ-JKFIT
  Charge       = 1
  Multiplicity = 1
  Basis Set: 6-31G*
    Blend: 6-31G*
  Basis Set: (6-31G* AUX)
    Blend: CC-PVDZ-JKFIT

    Orbital Energies [Eh]
    ---------------------

    Doubly Occupied:

       1A    -14.568529     2A    -14.568480     3A    -10.497344
       4A    -10.372757     5A    -10.355670     6A    -10.355565
       7A    -10.342373     8A    -10.340009     9A    -10.339945
      10A     -1.184144    11A     -1.092438    12A     -1.013908
      13A     -0.926295    14A     -0.901730    15A     -0.845263
      16A     -0.785808    17A     -0.772921    18A     -0.742611
      19A     -0.732401    20A     -0.688911    21A     -0.668986
      22A     -0.624774    23A     -0.617923    24A     -0.585893
      25A     -0.578608    26A     -0.572440    27A     -0.518266
      28A     -0.504881    29A     -0.497663    30A     -0.473211
      31A     -0.411293    32A     -0.405269

  @DF-RKS Final Energy:  -381.47044919833445

   => Energetics <=

    Nuclear Repulsion Energy =            416.9201593054600608
    One-Electron Energy =               -1329.0606902350727978
    Two-Electron Energy =                 575.0879467322587288
    DFT Exchange-Correlation Energy =     -44.4059049209804613
    Empirical Dispersion Energy =          -0.0119600800000000
    VV10 Nonlocal Energy =                  0.0000000000000000
    Total Energy =                       -381.4704491983344496
    Molecular point group: c1
  Basis Set: 6-31G*
    Blend: 6-31G*
  Basis Set: (6-31G* AUX)
    Blend: CC-PVDZ-JKFIT

  -Total Gradient:
     Atom            X                  Y                   Z
    ------   -----------------  -----------------  -----------------
       1       -0.000861139159     0.000293162290    -0.000044713829
       2        0.000812004726    -0.000021454680     0.000007169146
       3        0.000007715684    -0.000002265348    -0.000005934981
       4        0.000012531471    -0.000002974615    -0.000010629459
       5       -0.000003407139     0.000000800443    -0.000000608807
       6       -0.000026041292    -0.000013513627     0.000014691898
       7       -0.000609174538    -0.000772967813     0.000048811999
       8       -0.000015430604    -0.000005729126    -0.000009845294
       9       -0.000000688154    -0.000000851975     0.000000663203
      10       -0.000006289166     0.000000754302     0.000000340573
      11        0.000000127143    -0.000000069539     0.000000730429
      12       -0.000004061403     0.000003180620    -0.000001377919
      13        0.000710268736     0.000537302496    -0.000001321713
      14       -0.000048410925    -0.000013261804     0.000035951653
      15        0.000018552922     0.000012535378    -0.000007627086
      16        0.000036525535    -0.000011525546    -0.000027252644
      17       -0.000007479720     0.000001971397    -0.000018070204
      18       -0.000015177899    -0.000007831042    -0.000001241867

  **** Optimization is complete! (in 7 steps) ****
    Final optimized geometry and variables:
    Molecular point group: c1

    Geometry (in Angstrom), charge = 1, multiplicity = 1:

    C           -0.012528520293    -0.001494167072    -0.177920894243
    C            0.032288762073     1.218411420654     0.521917858972
    C            0.044868686256     1.211981156309     1.913387702045
    C            0.004533835801    -0.000627805728     2.608400452336
    C           -0.042183555234    -1.213861938315     1.914676249027
    C           -0.043636985223    -1.221107564877     0.523250590904
    C           -0.005929662755    -0.001502393072    -1.645266032685
    H            0.102758140239     2.159733369690    -0.015825411604
    H            0.096175573949     2.150625989034     2.455506862559
    H            0.010295862798    -0.000243591643     3.694042910203
    H           -0.085847383981    -2.152205156491     2.457982529721
    H           -0.117304183390    -2.163006737628    -0.013194534236
    N            0.703051027695    -0.913386487340    -2.303662431592
    N           -0.699066832468     0.918076063209    -2.309948170340
    H           -0.651951673895     1.023337810463    -3.316795415077
    H           -1.351957604599     1.510915049334    -1.814221853315
    H            1.346089168092    -1.510227526744    -1.799915075831
    H            0.670345344935    -1.015417489783    -3.311415336846

  Dipole Moment: [D]
     X:     0.0091      Y:     0.0011      Z:    -5.7745     Total:     5.7746

  Mulliken Charges: (a.u.)
   Center  Symbol    Alpha    Beta     Spin     Total
       1     C     2.96005  2.96005  0.00000  0.07990
       2     C     3.08083  3.08083  0.00000 -0.16165
       3     C     3.06244  3.06244  0.00000 -0.12488
       4     C     3.05158  3.05158  0.00000 -0.10316
       5     C     3.06265  3.06265  0.00000 -0.12529
       6     C     3.08164  3.08164  0.00000 -0.16328
       7     C     2.72411  2.72411  0.00000  0.55179
       8     H     0.41401  0.41401  0.00000  0.17198
       9     H     0.40554  0.40554  0.00000  0.18893
      10     H     0.40406  0.40406  0.00000  0.19187
      11     H     0.40554  0.40554  0.00000  0.18892
      12     H     0.41396  0.41396  0.00000  0.17209
      13     N     3.86162  3.86162  0.00000 -0.72325
      14     N     3.86196  3.86196  0.00000 -0.72391
      15     H     0.30566  0.30566  0.00000  0.38868
      16     H     0.29937  0.29937  0.00000  0.40127
      17     H     0.29933  0.29933  0.00000  0.40133
      18     H     0.30566  0.30566  0.00000  0.38868

   Total alpha = 32.00000, Total beta = 32.00000, Total charge =  1.00000

*** Psi4 exiting successfully. Buy a developer a beer!
