                               Psi4 1.2.1 release

  ==> Input File <==

--------------------------------------------------------------------------
set_num_threads(1)
set_memory('5348 MB')

set { scf_mem_safety_factor 0.7 }

set { reference rks }
set { basis cc-pVDZ }

molecule MOL {
    0 1
    noreorient
    nocom
    symmetry c1
    O    1.050400   0.042900  -0.048100
    C    2.474100   0.047400  -0.029000
    C    3.002600  -1.068900  -0.932000
    N    1.943454  -1.673141  -1.738599
    H    0.760400   0.728400   0.578000
    H    2.809900  -0.097900   1.003200
    H    2.817400   1.026800  -0.378600
    H    3.489285  -1.839811  -0.323253
    H    3.778425  -0.664035  -1.591724
    H    1.285014  -2.153441  -1.126022
    H    2.353249  -2.396525  -2.329390
}

set optking { frozen_dihedral = (" 1 2 3 4 ") }

energy, wfn = energy('B3LYP-D3', return_wfn=True)

import os
os.chdir(os.environ['HTMD_PSI4_WORKDIR'])

oeprop(wfn, 'DIPOLE', 'QUADRUPOLE', 'MULLIKEN_CHARGES')

with open('psi4out.xyz', 'w') as f:
    f.write('11 ' )
    f.write('%.12f\n' % energy)
    f.write(MOL.save_string_xyz())
--------------------------------------------------------------------------

    Molecular point group: c1

    Geometry (in Angstrom), charge = 0, multiplicity = 1:

       Center              X                  Y                   Z               Mass
    ------------   -----------------  -----------------  -----------------  -----------------
         O            1.050400000000     0.042900000000    -0.048100000000    15.994914619560
         C            2.474100000000     0.047400000000    -0.029000000000    12.000000000000
         C            3.002600000000    -1.068900000000    -0.932000000000    12.000000000000
         N            1.943454000000    -1.673141000000    -1.738599000000    14.003074004780
         H            0.760400000000     0.728400000000     0.578000000000     1.007825032070
         H            2.809900000000    -0.097900000000     1.003200000000     1.007825032070
         H            2.817400000000     1.026800000000    -0.378600000000     1.007825032070
         H            3.489285000000    -1.839811000000    -0.323253000000     1.007825032070
         H            3.778425000000    -0.664035000000    -1.591724000000     1.007825032070
         H            1.285014000000    -2.153441000000    -1.126022000000     1.007825032070
         H            2.353249000000    -2.396525000000    -2.329390000000     1.007825032070

  Charge       = 0
  Multiplicity = 1
  Basis Set: CC-PVDZ
    Blend: CC-PVDZ
  Basis Set: (CC-PVDZ AUX)
    Blend: CC-PVDZ-JKFIT

    Orbital Energies [Eh]
    ---------------------

    Doubly Occupied:

       1A    -19.124396     2A    -14.292676     3A    -10.222932
       4A    -10.200626     5A     -1.008119     6A     -0.865566
       7A     -0.714216     8A     -0.590255     9A     -0.512979
      10A     -0.476817    11A     -0.446423    12A     -0.410294
      13A     -0.388940    14A     -0.355934    15A     -0.323702
      16A     -0.260506    17A     -0.215960

  @DF-RKS Final Energy:  -210.38242623466877

   => Energetics <=

    Nuclear Repulsion Energy =            134.1856196282403459
    One-Electron Energy =                -551.4303884997007117
    Two-Electron Energy =                 230.3582470248173593
    DFT Exchange-Correlation Energy =     -23.4910150480257833
    Empirical Dispersion Energy =          -0.0048893400000000
    VV10 Nonlocal Energy =                  0.0000000000000000
    Total Energy =                       -210.3824262346687703

  Dipole Moment: [D]
     X:     1.1047      Y:    -0.0547      Z:     1.4459     Total:     1.8205

  Mulliken Charges: (a.u.)
   Center  Symbol    Alpha    Beta     Spin     Total
       1     O     4.13493  4.13493  0.00000 -0.26986
       2     C     2.92631  2.92631  0.00000  0.14737
       3     C     2.98821  2.98821  0.00000  0.02358
       4     N     3.58266  3.58266  0.00000 -0.16532
       5     H     0.43201  0.43201  0.00000  0.13598
       6     H     0.50364  0.50364  0.00000 -0.00728
       7     H     0.50071  0.50071  0.00000 -0.00141
       8     H     0.50528  0.50528  0.00000 -0.01057
       9     H     0.49404  0.49404  0.00000  0.01192
      10     H     0.46362  0.46362  0.00000  0.07275
      11     H     0.46859  0.46859  0.00000  0.06282

   Total alpha = 17.00000, Total beta = 17.00000, Total charge = -0.00000

*** Psi4 exiting successfully. Buy a developer a beer!
