                               Psi4 1.2.1 release

  ==> Input File <==

--------------------------------------------------------------------------
set_num_threads(4)
set_memory('3000 MB')

set { scf_mem_safety_factor 0.7 }

set { reference rks }
set { basis 6-31G* }

molecule MOL {
    1 1
    noreorient
    nocom
    symmetry c1
    C   -0.000000  -0.000000  -0.177864
    C    0.036678   1.219374   0.524165
    C    0.031765   1.213120   1.915444
    C    0.000000   0.000000   2.610107
    C   -0.031765  -1.213120   1.915444
    C   -0.036678  -1.219375   0.524165
    C   -0.000000   0.000000  -1.644734
    H    0.018170   2.164705  -0.010854
    H    0.042402   2.152895   2.457886
    H    0.000000   0.000000   3.695756
    H   -0.042402  -2.152895   2.457886
    H   -0.018170  -2.164705  -0.010853
    N   -0.712590  -0.905950  -2.308461
    N    0.712590   0.905950  -2.308460
    H    0.673432   1.006470  -3.315997
    H    1.377190   1.485970  -1.813316
    H   -1.671993  -0.707050  -2.559991
    H   -0.320118  -1.779032  -2.640817
}

set optking { frozen_dihedral = (" 1 7 13 17 ") }

set optking { dynamic_level = 1
 geom_maxiter = 250
 print_trajectory_xyz_file = True }

energy, wfn = optimize('B3LYP-D3', return_wfn=True)

import os
os.chdir(os.environ['HTMD_PSI4_WORKDIR'])

oeprop(wfn, 'DIPOLE', 'QUADRUPOLE', 'MULLIKEN_CHARGES')

with open('psi4out.xyz', 'w') as f:
    f.write('18 ' )
    f.write('%.12f\n' % energy)
    f.write(MOL.save_string_xyz())
--------------------------------------------------------------------------

    Molecular point group: c1
  Charge       = 1
  Multiplicity = 1
  Basis Set: 6-31G*
    Blend: 6-31G*
  Basis Set: (6-31G* AUX)
    Blend: CC-PVDZ-JKFIT
  @DF-RKS Final Energy:  -381.42617750755556
    Total Energy =                       -381.4261775075555079
    Molecular point group: c1
  Basis Set: 6-31G*
    Blend: 6-31G*
  Basis Set: (6-31G* AUX)
    Blend: CC-PVDZ-JKFIT
  Basis Set: 6-31G*
    Blend: 6-31G*
  Basis Set: (6-31G* AUX)
    Blend: CC-PVDZ-JKFIT
  @DF-RKS Final Energy:  -381.43328204903452
    Total Energy =                       -381.4332820490344602
  Basis Set: 6-31G*
    Blend: 6-31G*
  Basis Set: (6-31G* AUX)
    Blend: CC-PVDZ-JKFIT
  Basis Set: 6-31G*
    Blend: 6-31G*
  @DF-RKS Final Energy:  -381.43732380644917
    Total Energy =                       -381.4373238064491147
  @DF-RKS Final Energy:  -381.44080382868623
    Total Energy =                       -381.4408038286862848
  @DF-RKS Final Energy:  -381.44326171409972
    Total Energy =                       -381.4432617140997195
  @DF-RKS Final Energy:  -381.44728058194573
    Total Energy =                       -381.4472805819456767
  @DF-RKS Final Energy:  -381.44795722184404
    Total Energy =                       -381.4479572218440353
  @DF-RKS Final Energy:  -381.44812462161326
    Total Energy =                       -381.4481246216132035
  Basis Set: (6-31G* AUX)
    Blend: CC-PVDZ-JKFIT
  Basis Set: 6-31G*
    Blend: 6-31G*
  Basis Set: (6-31G* AUX)
    Blend: CC-PVDZ-JKFIT
  @DF-RKS Final Energy:  -381.44814483249820
    Total Energy =                       -381.4481448324982011
  Basis Set: 6-31G*
    Blend: 6-31G*
  Basis Set: (6-31G* AUX)
    Blend: CC-PVDZ-JKFIT
  Charge       = 1
  Multiplicity = 1
  Basis Set: 6-31G*
    Blend: 6-31G*
  Basis Set: (6-31G* AUX)
    Blend: CC-PVDZ-JKFIT

    Orbital Energies [Eh]
    ---------------------

    Doubly Occupied:

       1A    -14.581794     2A    -14.542788     3A    -10.496837
       4A    -10.373751     5A    -10.361965     6A    -10.356805
       7A    -10.351203     8A    -10.344851     9A    -10.341860
      10A     -1.179872    11A     -1.081469    12A     -1.016955
      13A     -0.930579    14A     -0.905236    15A     -0.842228
      16A     -0.775732    17A     -0.772071    18A     -0.736842
      19A     -0.719614    20A     -0.693440    21A     -0.667416
      22A     -0.627747    23A     -0.604938    24A     -0.582317
      25A     -0.580651    26A     -0.561402    27A     -0.517294
      28A     -0.509318    29A     -0.499966    30A     -0.473899
      31A     -0.416952    32A     -0.408744

  @DF-RKS Final Energy:  -381.44814557089455

   => Energetics <=

    Nuclear Repulsion Energy =            416.0251813770682361
    One-Electron Energy =               -1327.2968609236891098
    Two-Electron Energy =                 574.2250919122084269
    DFT Exchange-Correlation Energy =     -44.3899374364821568
    Empirical Dispersion Energy =          -0.0116205000000000
    VV10 Nonlocal Energy =                  0.0000000000000000
    Total Energy =                       -381.4481455708945532
    Molecular point group: c1
  Basis Set: 6-31G*
    Blend: 6-31G*
  Basis Set: (6-31G* AUX)
    Blend: CC-PVDZ-JKFIT

  -Total Gradient:
     Atom            X                  Y                   Z
    ------   -----------------  -----------------  -----------------
       1        0.010646201310    -0.004766955406    -0.000024668975
       2        0.000013511948     0.000015039606     0.000019466615
       3        0.000002426541     0.000013645490    -0.000005155142
       4       -0.000001272809    -0.000004161065     0.000017662795
       5       -0.000030738687     0.000010260349    -0.000018256193
       6        0.000049294416     0.000011354141     0.000044993552
       7       -0.015021135571     0.009296108706    -0.004461901681
       8        0.000003448706    -0.000000474690     0.000007096982
       9       -0.000003156311     0.000001539144    -0.000002412037
      10       -0.000000394888     0.000004087553    -0.000004678053
      11        0.000002398026    -0.000011234846    -0.000011988043
      12       -0.000009465421    -0.000016590548    -0.000009721250
      13        0.001297706733    -0.011550979653     0.018588487976
      14       -0.000102896974     0.000032617332    -0.000004913126
      15        0.000002364888     0.000006691404    -0.000019304668
      16        0.000019532253     0.000011638621     0.000002930680
      17        0.003144657337     0.006934065939    -0.014167430095
      18        0.000003959339     0.000008103735     0.000029572166

  **** Optimization is complete! (in 10 steps) ****
    Final optimized geometry and variables:
    Molecular point group: c1

    Geometry (in Angstrom), charge = 1, multiplicity = 1:

    C           -0.043378295428     0.011278243716    -0.153176538269
    C            0.102874164521     1.229399899308     0.552618747514
    C            0.142257900345     1.224542414065     1.938436677810
    C            0.025235061476     0.013700614274     2.635875079590
    C           -0.140735846886    -1.192381802774     1.947578845140
    C           -0.183276234606    -1.201193402660     0.558618834625
    C           -0.049631323592    -0.018185450854    -1.600474848190
    H            0.134112352854     2.177367761933     0.021782885948
    H            0.245534987926     2.158285625074     2.481358834887
    H            0.057043166175     0.014839177207     3.721296389981
    H           -0.228988876526    -2.124965813281     2.495187559966
    H           -0.283397788187    -2.132165040222     0.012634884021
    N           -0.541875744478    -1.134719257248    -2.255646812112
    N            0.623827997827     0.889124767016    -2.294564525173
    H            0.581643401178     0.929988534481    -3.307141450985
    H            1.224055120978     1.565133105776    -1.834261143346
    H           -1.540148482519    -1.111112728025    -2.465393567611
    H           -0.066640561058    -1.292579647787    -3.145223853795

  Dipole Moment: [D]
     X:     0.2317      Y:     1.1640      Z:    -5.4734     Total:     5.6007

  Mulliken Charges: (a.u.)
   Center  Symbol    Alpha    Beta     Spin     Total
       1     C     2.94533  2.94533  0.00000  0.10934
       2     C     3.08445  3.08445  0.00000 -0.16891
       3     C     3.06261  3.06261  0.00000 -0.12521
       4     C     3.04872  3.04872  0.00000 -0.09744
       5     C     3.06246  3.06246  0.00000 -0.12492
       6     C     3.06839  3.06839  0.00000 -0.13678
       7     C     2.77126  2.77126  0.00000  0.45749
       8     H     0.41607  0.41607  0.00000  0.16786
       9     H     0.40434  0.40434  0.00000  0.19132
      10     H     0.40162  0.40162  0.00000  0.19676
      11     H     0.40365  0.40365  0.00000  0.19270
      12     H     0.39982  0.39982  0.00000  0.20036
      13     N     3.86070  3.86070  0.00000 -0.72140
      14     N     3.84275  3.84275  0.00000 -0.68550
      15     H     0.30413  0.30413  0.00000  0.39174
      16     H     0.29957  0.29957  0.00000  0.40085
      17     H     0.30469  0.30469  0.00000  0.39061
      18     H     0.31944  0.31944  0.00000  0.36112

   Total alpha = 32.00000, Total beta = 32.00000, Total charge =  1.00000

*** Psi4 exiting successfully. Buy a developer a beer!
