                               Psi4 1.2.1 release

  ==> Input File <==

--------------------------------------------------------------------------
set_num_threads(1)
set_memory('5348 MB')

set { scf_mem_safety_factor 0.7 }

set { reference rks }
set { basis cc-pVDZ }

molecule MOL {
    0 1
    noreorient
    nocom
    symmetry c1
    O    1.014300  -0.002300   0.060500
    O    2.462400  -0.107500  -0.002400
    H    0.821200  -0.823600  -0.430600
    H    2.493169  -1.018719  -0.351069
}

set optking { frozen_dihedral = (" 3 1 2 4 ") }

set optking { dynamic_level = 1
 geom_maxiter = 250
 print_trajectory_xyz_file = True }

energy, wfn = optimize('B3LYP-D3', return_wfn=True)

import os
os.chdir(os.environ['HTMD_PSI4_WORKDIR'])

oeprop(wfn, 'DIPOLE', 'QUADRUPOLE', 'MULLIKEN_CHARGES')

with open('psi4out.xyz', 'w') as f:
    f.write('4 ' )
    f.write('%.12f\n' % energy)
    f.write(MOL.save_string_xyz())
--------------------------------------------------------------------------

    Molecular point group: c1
  Charge       = 0
  Multiplicity = 1
  Basis Set: CC-PVDZ
    Blend: CC-PVDZ
  Basis Set: (CC-PVDZ AUX)
    Blend: CC-PVDZ-JKFIT
  @DF-RKS Final Energy:  -151.53387137494573
    Total Energy =                       -151.5338713749457327
    Molecular point group: c1
  Basis Set: CC-PVDZ
    Blend: CC-PVDZ
  Basis Set: (CC-PVDZ AUX)
    Blend: CC-PVDZ-JKFIT
  Basis Set: CC-PVDZ
    Blend: CC-PVDZ
  Basis Set: (CC-PVDZ AUX)
    Blend: CC-PVDZ-JKFIT
  @DF-RKS Final Energy:  -151.53715751433757
    Total Energy =                       -151.5371575143375651
  Basis Set: CC-PVDZ
    Blend: CC-PVDZ
  Basis Set: (CC-PVDZ AUX)
    Blend: CC-PVDZ-JKFIT
  Basis Set: CC-PVDZ
    Blend: CC-PVDZ
  @DF-RKS Final Energy:  -151.53879816440923
    Total Energy =                       -151.5387981644092292
  Basis Set: (CC-PVDZ AUX)
    Blend: CC-PVDZ-JKFIT
  Basis Set: CC-PVDZ
    Blend: CC-PVDZ
  Basis Set: (CC-PVDZ AUX)
    Blend: CC-PVDZ-JKFIT
  @DF-RKS Final Energy:  -151.53886404861231
    Total Energy =                       -151.5388640486123109
  Basis Set: CC-PVDZ
    Blend: CC-PVDZ
  Basis Set: (CC-PVDZ AUX)
    Blend: CC-PVDZ-JKFIT
  Charge       = 0
  Multiplicity = 1
  Basis Set: CC-PVDZ
    Blend: CC-PVDZ
  Basis Set: (CC-PVDZ AUX)
    Blend: CC-PVDZ-JKFIT

    Orbital Energies [Eh]
    ---------------------

    Doubly Occupied:

       1A    -19.190018     2A    -19.189989     3A     -1.107734
       4A     -0.894230     5A     -0.563636     6A     -0.418288
       7A     -0.394910     8A     -0.371565     9A     -0.246819

  @DF-RKS Final Energy:  -151.53886928657181

   => Energetics <=

    Nuclear Repulsion Energy =             36.5054252794532275
    One-Electron Energy =                -280.9530428757037726
    Two-Electron Energy =                 107.3662230333863903
    DFT Exchange-Correlation Energy =     -14.4571756437076591
    Empirical Dispersion Energy =          -0.0002990800000000
    VV10 Nonlocal Energy =                  0.0000000000000000
    Total Energy =                       -151.5388692865718099
    Molecular point group: c1
  Basis Set: CC-PVDZ
    Blend: CC-PVDZ
  Basis Set: (CC-PVDZ AUX)
    Blend: CC-PVDZ-JKFIT

  -Total Gradient:
     Atom            X                  Y                   Z
    ------   -----------------  -----------------  -----------------
       1       -0.000114708100     0.001265873212    -0.002126195851
       2        0.000148416583    -0.000904300392     0.002301399495
       3        0.000056897650    -0.001000048041     0.001580061031
       4       -0.000091256936     0.000631527721    -0.001758632180

  **** Optimization is complete! (in 5 steps) ****
    Final optimized geometry and variables:
    Molecular point group: c1

    Geometry (in Angstrom), charge = 0, multiplicity = 1:

    O            1.009623311732    -0.011086510605     0.048261431949
    O            2.464775950988    -0.123050657986    -0.001962085218
    H            0.687621336101    -0.798471451090    -0.425350607864
    H            2.629048401180    -1.019510380318    -0.344517738868

  Dipole Moment: [D]
     X:    -0.2650      Y:    -2.8288      Z:    -1.3711     Total:     3.1547

  Mulliken Charges: (a.u.)
   Center  Symbol    Alpha    Beta     Spin     Total
       1     O     4.08069  4.08069  0.00000 -0.16137
       2     O     4.08069  4.08069  0.00000 -0.16137
       3     H     0.41931  0.41931  0.00000  0.16137
       4     H     0.41931  0.41931  0.00000  0.16137

   Total alpha =  9.00000, Total beta =  9.00000, Total charge =  0.00000

*** Psi4 exiting successfully. Buy a developer a beer!
