                               Psi4 1.2.1 release

  ==> Input File <==

--------------------------------------------------------------------------
set_num_threads(1)
set_memory('5348 MB')

set { scf_mem_safety_factor 0.7 }

set { reference rks }
set { basis cc-pVDZ }

molecule MOL {
    0 1
    noreorient
    nocom
    symmetry c1
    O    1.014300  -0.002300   0.060500
    O    2.462400  -0.107500  -0.002400
    H    0.821200  -0.823600  -0.430600
    H    2.521144  -0.267426  -0.963550
}

set optking { frozen_dihedral = (" 3 1 2 4 ") }

set optking { dynamic_level = 1
 geom_maxiter = 250
 print_trajectory_xyz_file = True }

energy, wfn = optimize('B3LYP-D3', return_wfn=True)

import os
os.chdir(os.environ['HTMD_PSI4_WORKDIR'])

oeprop(wfn, 'DIPOLE', 'QUADRUPOLE', 'MULLIKEN_CHARGES')

with open('psi4out.xyz', 'w') as f:
    f.write('4 ' )
    f.write('%.12f\n' % energy)
    f.write(MOL.save_string_xyz())
--------------------------------------------------------------------------

    Molecular point group: c1
  Charge       = 0
  Multiplicity = 1
  Basis Set: CC-PVDZ
    Blend: CC-PVDZ
  Basis Set: (CC-PVDZ AUX)
    Blend: CC-PVDZ-JKFIT
  @DF-RKS Final Energy:  -151.54151253575617
    Total Energy =                       -151.5415125357561692
    Molecular point group: c1
  Basis Set: CC-PVDZ
    Blend: CC-PVDZ
  Basis Set: (CC-PVDZ AUX)
    Blend: CC-PVDZ-JKFIT
  Basis Set: CC-PVDZ
    Blend: CC-PVDZ
  Basis Set: (CC-PVDZ AUX)
    Blend: CC-PVDZ-JKFIT
  @DF-RKS Final Energy:  -151.54364587105030
    Total Energy =                       -151.5436458710503018
  Basis Set: CC-PVDZ
    Blend: CC-PVDZ
  Basis Set: (CC-PVDZ AUX)
    Blend: CC-PVDZ-JKFIT
  Basis Set: CC-PVDZ
    Blend: CC-PVDZ
  @DF-RKS Final Energy:  -151.54439224753494
    Total Energy =                       -151.5443922475349439
  Basis Set: (CC-PVDZ AUX)
    Blend: CC-PVDZ-JKFIT
  Basis Set: CC-PVDZ
    Blend: CC-PVDZ
  Basis Set: (CC-PVDZ AUX)
    Blend: CC-PVDZ-JKFIT
  @DF-RKS Final Energy:  -151.54442109310128
    Total Energy =                       -151.5444210931012776
  Basis Set: CC-PVDZ
    Blend: CC-PVDZ
  Basis Set: (CC-PVDZ AUX)
    Blend: CC-PVDZ-JKFIT
  Charge       = 0
  Multiplicity = 1
  Basis Set: CC-PVDZ
    Blend: CC-PVDZ
  Basis Set: (CC-PVDZ AUX)
    Blend: CC-PVDZ-JKFIT

    Orbital Energies [Eh]
    ---------------------

    Doubly Occupied:

       1A    -19.190099     2A    -19.190066     3A     -1.111285
       4A     -0.891253     5A     -0.555433     6A     -0.433352
       7A     -0.418731     8A     -0.330943     9A     -0.259925

  @DF-RKS Final Energy:  -151.54442351360677

   => Energetics <=

    Nuclear Repulsion Energy =             36.6815536054104427
    One-Electron Energy =                -281.3073720154172861
    Two-Electron Energy =                 107.5408951549365213
    DFT Exchange-Correlation Energy =     -14.4591988785364567
    Empirical Dispersion Energy =          -0.0003013800000000
    VV10 Nonlocal Energy =                  0.0000000000000000
    Total Energy =                       -151.5444235136067732
    Molecular point group: c1
  Basis Set: CC-PVDZ
    Blend: CC-PVDZ
  Basis Set: (CC-PVDZ AUX)
    Blend: CC-PVDZ-JKFIT

  -Total Gradient:
     Atom            X                  Y                   Z
    ------   -----------------  -----------------  -----------------
       1        0.000223693896    -0.004261142997     0.005797944832
       2        0.000147393216     0.006972607715    -0.001784326828
       3       -0.000160816168     0.002944087892    -0.004921869974
       4       -0.000211275588    -0.005662892025     0.000897388981

  **** Optimization is complete! (in 5 steps) ****
    Final optimized geometry and variables:
    Molecular point group: c1

    Geometry (in Angstrom), charge = 0, multiplicity = 1:

    O            1.014243720926    -0.028445448182     0.066979410220
    O            2.461028698250    -0.091671882370    -0.024117370731
    H            0.726485554391    -0.831503195478    -0.405306288086
    H            2.617286026433    -0.249205473970    -0.973605751404

  Dipole Moment: [D]
     X:    -0.2214      Y:    -1.6171      Z:    -2.3934     Total:     2.8969

  Mulliken Charges: (a.u.)
   Center  Symbol    Alpha    Beta     Spin     Total
       1     O     4.08308  4.08308  0.00000 -0.16616
       2     O     4.08308  4.08308  0.00000 -0.16616
       3     H     0.41692  0.41692  0.00000  0.16616
       4     H     0.41692  0.41692  0.00000  0.16616

   Total alpha =  9.00000, Total beta =  9.00000, Total charge = -0.00000

*** Psi4 exiting successfully. Buy a developer a beer!
