                               Psi4 1.2.1 release

  ==> Input File <==

--------------------------------------------------------------------------
set_num_threads(1)
set_memory('5348 MB')

set { scf_mem_safety_factor 0.7 }

set { reference rks }
set { basis cc-pVDZ }

molecule MOL {
    0 1
    noreorient
    nocom
    symmetry c1
    O    1.050400   0.042900  -0.048100
    C    2.474100   0.047400  -0.029000
    C    3.002600  -1.068900  -0.932000
    N    4.462700  -1.072400  -1.006800
    H    0.760400   0.728400   0.578000
    H    2.809900  -0.097900   1.003200
    H    2.817400   1.026800  -0.378600
    H    2.581000  -0.963300  -1.938400
    H    2.653800  -2.036400  -0.553400
    H    4.825027  -0.224701  -0.571362
    H    4.741083  -1.023369  -1.986775
}

set optking { frozen_dihedral = (" 2 3 4 10 ") }

energy, wfn = energy('B3LYP-D3', return_wfn=True)

import os
os.chdir(os.environ['HTMD_PSI4_WORKDIR'])

oeprop(wfn, 'DIPOLE', 'QUADRUPOLE', 'MULLIKEN_CHARGES')

with open('psi4out.xyz', 'w') as f:
    f.write('11 ' )
    f.write('%.12f\n' % energy)
    f.write(MOL.save_string_xyz())
--------------------------------------------------------------------------

    Molecular point group: c1

    Geometry (in Angstrom), charge = 0, multiplicity = 1:

       Center              X                  Y                   Z               Mass
    ------------   -----------------  -----------------  -----------------  -----------------
         O            1.050400000000     0.042900000000    -0.048100000000    15.994914619560
         C            2.474100000000     0.047400000000    -0.029000000000    12.000000000000
         C            3.002600000000    -1.068900000000    -0.932000000000    12.000000000000
         N            4.462700000000    -1.072400000000    -1.006800000000    14.003074004780
         H            0.760400000000     0.728400000000     0.578000000000     1.007825032070
         H            2.809900000000    -0.097900000000     1.003200000000     1.007825032070
         H            2.817400000000     1.026800000000    -0.378600000000     1.007825032070
         H            2.581000000000    -0.963300000000    -1.938400000000     1.007825032070
         H            2.653800000000    -2.036400000000    -0.553400000000     1.007825032070
         H            4.825027000000    -0.224701000000    -0.571362000000     1.007825032070
         H            4.741083000000    -1.023369000000    -1.986775000000     1.007825032070

  Charge       = 0
  Multiplicity = 1
  Basis Set: CC-PVDZ
    Blend: CC-PVDZ
  Basis Set: (CC-PVDZ AUX)
    Blend: CC-PVDZ-JKFIT

    Orbital Energies [Eh]
    ---------------------

    Doubly Occupied:

       1A    -19.130537     2A    -14.303888     3A    -10.229308
       4A    -10.201160     5A     -1.013003     6A     -0.877731
       7A     -0.712461     8A     -0.604145     9A     -0.509967
      10A     -0.479956    11A     -0.464103    12A     -0.414034
      13A     -0.386374    14A     -0.367428    15A     -0.326646
      16A     -0.264737    17A     -0.230209

  @DF-RKS Final Energy:  -210.38755228263412

   => Energetics <=

    Nuclear Repulsion Energy =            130.7466667850620752
    One-Electron Energy =                -544.3540355599080840
    Two-Electron Energy =                 226.7126613497636072
    DFT Exchange-Correlation Energy =     -23.4879301775516893
    Empirical Dispersion Energy =          -0.0049146800000000
    VV10 Nonlocal Energy =                  0.0000000000000000
    Total Energy =                       -210.3875522826340898

  Dipole Moment: [D]
     X:     0.4120      Y:     2.0620      Z:     0.2259     Total:     2.1149

  Mulliken Charges: (a.u.)
   Center  Symbol    Alpha    Beta     Spin     Total
       1     O     4.13743  4.13743  0.00000 -0.27485
       2     C     2.94259  2.94259  0.00000  0.11483
       3     C     2.97809  2.97809  0.00000  0.04382
       4     N     3.59172  3.59172  0.00000 -0.18344
       5     H     0.43031  0.43031  0.00000  0.13938
       6     H     0.49719  0.49719  0.00000  0.00562
       7     H     0.50426  0.50426  0.00000 -0.00853
       8     H     0.49616  0.49616  0.00000  0.00767
       9     H     0.49057  0.49057  0.00000  0.01886
      10     H     0.46920  0.46920  0.00000  0.06160
      11     H     0.46248  0.46248  0.00000  0.07505

   Total alpha = 17.00000, Total beta = 17.00000, Total charge = -0.00000

*** Psi4 exiting successfully. Buy a developer a beer!
