                               Psi4 1.2.1 release

  ==> Input File <==

--------------------------------------------------------------------------
set_num_threads(4)
set_memory('3000 MB')

set { scf_mem_safety_factor 0.7 }

set { reference rks }
set { basis 6-31G* }

molecule MOL {
    1 1
    noreorient
    nocom
    symmetry c1
    C   -0.000000  -0.000000  -0.177864
    C    0.036678   1.219374   0.524165
    C    0.031765   1.213120   1.915444
    C    0.000000   0.000000   2.610107
    C   -0.031765  -1.213120   1.915444
    C   -0.036678  -1.219375   0.524165
    C   -0.000000   0.000000  -1.644734
    H    0.018170   2.164705  -0.010854
    H    0.042402   2.152895   2.457886
    H    0.000000   0.000000   3.695756
    H   -0.042402  -2.152895   2.457886
    H   -0.018170  -2.164705  -0.010853
    N   -0.712590  -0.905950  -2.308461
    N    0.712590   0.905950  -2.308460
    H    0.673432   1.006470  -3.315997
    H    1.377190   1.485970  -1.813316
    H   -0.280634  -1.443522  -3.048538
    H   -1.668428  -1.139403  -2.066304
}

set optking { frozen_dihedral = (" 1 7 13 17 ") }

set optking { dynamic_level = 1
 geom_maxiter = 250
 print_trajectory_xyz_file = True }

energy, wfn = optimize('B3LYP-D3', return_wfn=True)

import os
os.chdir(os.environ['HTMD_PSI4_WORKDIR'])

oeprop(wfn, 'DIPOLE', 'QUADRUPOLE', 'MULLIKEN_CHARGES')

with open('psi4out.xyz', 'w') as f:
    f.write('18 ' )
    f.write('%.12f\n' % energy)
    f.write(MOL.save_string_xyz())
--------------------------------------------------------------------------

    Molecular point group: c1
  Charge       = 1
  Multiplicity = 1
  Basis Set: 6-31G*
    Blend: 6-31G*
  Basis Set: (6-31G* AUX)
    Blend: CC-PVDZ-JKFIT
  @DF-RKS Final Energy:  -381.45483210591749
    Total Energy =                       -381.4548321059174896
    Molecular point group: c1
  Basis Set: 6-31G*
    Blend: 6-31G*
  Basis Set: (6-31G* AUX)
    Blend: CC-PVDZ-JKFIT
  Basis Set: 6-31G*
    Blend: 6-31G*
  Basis Set: (6-31G* AUX)
    Blend: CC-PVDZ-JKFIT
  @DF-RKS Final Energy:  -381.46045135804189
    Total Energy =                       -381.4604513580418939
  Basis Set: 6-31G*
    Blend: 6-31G*
  Basis Set: (6-31G* AUX)
    Blend: CC-PVDZ-JKFIT
  Basis Set: 6-31G*
    Blend: 6-31G*
  @DF-RKS Final Energy:  -381.46271341497237
    Total Energy =                       -381.4627134149723702
  @DF-RKS Final Energy:  -381.46378237988830
    Total Energy =                       -381.4637823798883005
  @DF-RKS Final Energy:  -381.46381970194903
    Total Energy =                       -381.4638197019490349
  Basis Set: (6-31G* AUX)
    Blend: CC-PVDZ-JKFIT
  Basis Set: 6-31G*
    Blend: 6-31G*
  Basis Set: (6-31G* AUX)
    Blend: CC-PVDZ-JKFIT
  @DF-RKS Final Energy:  -381.46382702106973
    Total Energy =                       -381.4638270210696760
  Basis Set: 6-31G*
    Blend: 6-31G*
  Basis Set: (6-31G* AUX)
    Blend: CC-PVDZ-JKFIT
  Charge       = 1
  Multiplicity = 1
  Basis Set: 6-31G*
    Blend: 6-31G*
  Basis Set: (6-31G* AUX)
    Blend: CC-PVDZ-JKFIT

    Orbital Energies [Eh]
    ---------------------

    Doubly Occupied:

       1A    -14.570445     2A    -14.556597     3A    -10.496037
       4A    -10.376136     5A    -10.361739     6A    -10.360531
       7A    -10.349108     8A    -10.344799     9A    -10.344649
      10A     -1.180658    11A     -1.087262    12A     -1.018043
      13A     -0.928923    14A     -0.906678    15A     -0.843540
      16A     -0.784167    17A     -0.771831    18A     -0.740063
      19A     -0.731126    20A     -0.683566    21A     -0.673233
      22A     -0.631418    23A     -0.615009    24A     -0.586693
      25A     -0.582493    26A     -0.569410    27A     -0.522423
      28A     -0.510070    29A     -0.501955    30A     -0.471034
      31A     -0.417295    32A     -0.410214

  @DF-RKS Final Energy:  -381.46382789145673

   => Energetics <=

    Nuclear Repulsion Energy =            416.6555584944688349
    One-Electron Energy =               -1328.4398376048297905
    Two-Electron Energy =                 574.7333124088272598
    DFT Exchange-Correlation Energy =     -44.4008822799230458
    Empirical Dispersion Energy =          -0.0119789100000000
    VV10 Nonlocal Energy =                  0.0000000000000000
    Total Energy =                       -381.4638278914567877
    Molecular point group: c1
  Basis Set: 6-31G*
    Blend: 6-31G*
  Basis Set: (6-31G* AUX)
    Blend: CC-PVDZ-JKFIT

  -Total Gradient:
     Atom            X                  Y                   Z
    ------   -----------------  -----------------  -----------------
       1        0.005818090416    -0.004315533211    -0.000112469545
       2        0.000052551824     0.000015762569     0.000020500418
       3       -0.000023162757    -0.000004201167    -0.000022597317
       4        0.000010572073    -0.000000910917     0.000007668765
       5       -0.000008121015    -0.000010730099    -0.000011367889
       6        0.000028871680     0.000003686006     0.000007253839
       7       -0.008134854771     0.003930790908     0.002638392443
       8        0.000001817671    -0.000003813641    -0.000011785060
       9       -0.000003593202     0.000001656143    -0.000003004331
      10        0.000001835410    -0.000003173253    -0.000001751649
      11       -0.000009430687     0.000000249391    -0.000000618688
      12        0.000001710085    -0.000004329208    -0.000007327221
      13       -0.000562302933     0.007738104600    -0.009269644178
      14       -0.000013193364     0.000105084839    -0.000012505966
      15       -0.000000970967    -0.000011097219     0.000006710287
      16       -0.000000383942    -0.000024376815    -0.000010518555
      17        0.002867251993    -0.007355361174     0.006702959861
      18       -0.000024207955    -0.000059462600     0.000051981847

  **** Optimization is complete! (in 7 steps) ****
    Final optimized geometry and variables:
    Molecular point group: c1

    Geometry (in Angstrom), charge = 1, multiplicity = 1:

    C           -0.043169226441     0.029681146838    -0.187121402321
    C            0.052882216750     1.239305458605     0.531529307319
    C            0.076806951465     1.217805754160     1.920806914311
    C            0.007434375160    -0.002931754760     2.601600267609
    C           -0.091673032877    -1.205873695957     1.894883982323
    C           -0.125076137686    -1.195419983455     0.504857281820
    C           -0.039450196712     0.038258758241    -1.646655122050
    H            0.057701434735     2.190570878311     0.006491571967
    H            0.135412091648     2.149002332542     2.474760935680
    H            0.027689494459    -0.016225779013     3.687054416082
    H           -0.134884174614    -2.150048590045     2.427886974818
    H           -0.162216292367    -2.135091885630    -0.038373366918
    N           -0.716303479676    -0.878712109507    -2.365387575011
    N            0.696810247646     0.923342179756    -2.309193807323
    H            0.626182281521     1.025685741652    -3.315608559629
    H            1.359919779997     1.513053251096    -1.822663034508
    H           -0.249400172417    -1.379740852727    -3.114860345115
    H           -1.377106160589    -1.453146850107    -1.854536439056

  Dipole Moment: [D]
     X:     0.8049      Y:    -0.2671      Z:    -4.8756     Total:     4.9488

  Mulliken Charges: (a.u.)
   Center  Symbol    Alpha    Beta     Spin     Total
       1     C     2.94944  2.94944  0.00000  0.10112
       2     C     3.08184  3.08184  0.00000 -0.16368
       3     C     3.06219  3.06219  0.00000 -0.12439
       4     C     3.05040  3.05040  0.00000 -0.10079
       5     C     3.06225  3.06225  0.00000 -0.12449
       6     C     3.07994  3.07994  0.00000 -0.15988
       7     C     2.74394  2.74394  0.00000  0.51212
       8     H     0.41270  0.41270  0.00000  0.17459
       9     H     0.40412  0.40412  0.00000  0.19175
      10     H     0.40229  0.40229  0.00000  0.19541
      11     H     0.40432  0.40432  0.00000  0.19137
      12     H     0.41690  0.41690  0.00000  0.16619
      13     N     3.86337  3.86337  0.00000 -0.72673
      14     N     3.85281  3.85281  0.00000 -0.70562
      15     H     0.30210  0.30210  0.00000  0.39579
      16     H     0.30052  0.30052  0.00000  0.39896
      17     H     0.30489  0.30489  0.00000  0.39022
      18     H     0.30597  0.30597  0.00000  0.38806

   Total alpha = 32.00000, Total beta = 32.00000, Total charge =  1.00000

*** Psi4 exiting successfully. Buy a developer a beer!
