                               Psi4 1.2.1 release

  ==> Input File <==

--------------------------------------------------------------------------
set_num_threads(4)
set_memory('3000 MB')

set { scf_mem_safety_factor 0.7 }

set { reference rks }
set { basis 6-31G* }

molecule MOL {
    1 1
    noreorient
    nocom
    symmetry c1
    C   -0.000000  -0.000000  -0.177864
    C    0.036678   1.219374   0.524165
    C    0.031765   1.213120   1.915444
    C    0.000000   0.000000   2.610107
    C   -0.031765  -1.213120   1.915444
    C   -0.036678  -1.219375   0.524165
    C   -0.000000   0.000000  -1.644734
    H    0.018170   2.164705  -0.010854
    H    0.042402   2.152895   2.457886
    H    0.000000   0.000000   3.695756
    H   -0.042402  -2.152895   2.457886
    H   -0.018170  -2.164705  -0.010853
    N   -0.712590  -0.905950  -2.308461
    N    0.712590   0.905950  -2.308460
    H    0.673432   1.006470  -3.315997
    H    1.377190   1.485970  -1.813316
    H   -0.250347  -1.546853  -2.940013
    H   -1.707257  -1.036195  -2.165490
}

set optking { frozen_dihedral = (" 1 7 13 17 ") }

set optking { dynamic_level = 1
 geom_maxiter = 250
 print_trajectory_xyz_file = True }

energy, wfn = optimize('B3LYP-D3', return_wfn=True)

import os
os.chdir(os.environ['HTMD_PSI4_WORKDIR'])

oeprop(wfn, 'DIPOLE', 'QUADRUPOLE', 'MULLIKEN_CHARGES')

with open('psi4out.xyz', 'w') as f:
    f.write('18 ' )
    f.write('%.12f\n' % energy)
    f.write(MOL.save_string_xyz())
--------------------------------------------------------------------------

    Molecular point group: c1
  Charge       = 1
  Multiplicity = 1
  Basis Set: 6-31G*
    Blend: 6-31G*
  Basis Set: (6-31G* AUX)
    Blend: CC-PVDZ-JKFIT
  @DF-RKS Final Energy:  -381.44714033834748
    Total Energy =                       -381.4471403383474808
    Molecular point group: c1
  Basis Set: 6-31G*
    Blend: 6-31G*
  Basis Set: (6-31G* AUX)
    Blend: CC-PVDZ-JKFIT
  Basis Set: 6-31G*
    Blend: 6-31G*
  Basis Set: (6-31G* AUX)
    Blend: CC-PVDZ-JKFIT
  @DF-RKS Final Energy:  -381.45489492847400
    Total Energy =                       -381.4548949284739479
  Basis Set: 6-31G*
    Blend: 6-31G*
  Basis Set: (6-31G* AUX)
    Blend: CC-PVDZ-JKFIT
  Basis Set: 6-31G*
    Blend: 6-31G*
  @DF-RKS Final Energy:  -381.45743774528131
    Total Energy =                       -381.4574377452813678
  @DF-RKS Final Energy:  -381.46031618096379
    Total Energy =                       -381.4603161809637868
  @DF-RKS Final Energy:  -381.46053284971237
    Total Energy =                       -381.4605328497124219
  @DF-RKS Final Energy:  -381.46054917002982
    Total Energy =                       -381.4605491700298217
  Basis Set: (6-31G* AUX)
    Blend: CC-PVDZ-JKFIT
  Basis Set: 6-31G*
    Blend: 6-31G*
  Basis Set: (6-31G* AUX)
    Blend: CC-PVDZ-JKFIT
  @DF-RKS Final Energy:  -381.46055039440392
    Total Energy =                       -381.4605503944039242
  Basis Set: 6-31G*
    Blend: 6-31G*
  Basis Set: (6-31G* AUX)
    Blend: CC-PVDZ-JKFIT
  Charge       = 1
  Multiplicity = 1
  Basis Set: 6-31G*
    Blend: 6-31G*
  Basis Set: (6-31G* AUX)
    Blend: CC-PVDZ-JKFIT

    Orbital Energies [Eh]
    ---------------------

    Doubly Occupied:

       1A    -14.572332     2A    -14.552036     3A    -10.496146
       4A    -10.377271     5A    -10.363307     6A    -10.362153
       7A    -10.351017     8A    -10.346162     9A    -10.346079
      10A     -1.179988    11A     -1.085732    12A     -1.019302
      13A     -0.929799    14A     -0.908123    15A     -0.843237
      16A     -0.784164    17A     -0.771983    18A     -0.739530
      19A     -0.729023    20A     -0.681830    21A     -0.674328
      22A     -0.633188    23A     -0.614509    24A     -0.587998
      25A     -0.583504    26A     -0.567251    27A     -0.523310
      28A     -0.511684    29A     -0.503245    30A     -0.470472
      31A     -0.418892    32A     -0.411656

  @DF-RKS Final Energy:  -381.46055047620354

   => Energetics <=

    Nuclear Repulsion Energy =            416.5373966171827647
    One-Electron Energy =               -1328.1741171942367146
    Two-Electron Energy =                 574.5869279913134733
    DFT Exchange-Correlation Energy =     -44.3987602504630559
    Empirical Dispersion Energy =          -0.0119976400000000
    VV10 Nonlocal Energy =                  0.0000000000000000
    Total Energy =                       -381.4605504762034798
    Molecular point group: c1
  Basis Set: 6-31G*
    Blend: 6-31G*
  Basis Set: (6-31G* AUX)
    Blend: CC-PVDZ-JKFIT

  -Total Gradient:
     Atom            X                  Y                   Z
    ------   -----------------  -----------------  -----------------
       1        0.007073405953    -0.005012647554    -0.000008677136
       2       -0.000022933647     0.000007686475    -0.000003939156
       3        0.000002393702    -0.000011222124     0.000006814871
       4       -0.000002466523     0.000008373437     0.000004956910
       5        0.000004681489    -0.000005062669     0.000001550269
       6       -0.000008046655     0.000031027749    -0.000015378642
       7       -0.010444125249     0.004856223489     0.003126033145
       8        0.000008806092    -0.000001530686    -0.000006617874
       9        0.000003525369     0.000001373426    -0.000002362344
      10       -0.000001919984     0.000000446002    -0.000002308764
      11       -0.000000272072    -0.000001893154    -0.000005059355
      12        0.000001310694    -0.000012855393     0.000000785882
      13        0.001741508331     0.008231356437    -0.011707308812
      14       -0.000048153274     0.000020696810    -0.000026538360
      15       -0.000006377955     0.000016323077     0.000005959598
      16       -0.000024858310     0.000009082524     0.000008234474
      17        0.001625419349    -0.008169330227     0.008732791754
      18        0.000095257547     0.000033079994    -0.000134480381

  **** Optimization is complete! (in 8 steps) ****
    Final optimized geometry and variables:
    Molecular point group: c1

    Geometry (in Angstrom), charge = 1, multiplicity = 1:

    C           -0.050740942764     0.036902978903    -0.190213973362
    C            0.061877593908     1.243295521110     0.533151643848
    C            0.091766918433     1.217094979155     1.921795320636
    C            0.008980220986    -0.005306541417     2.598730119130
    C           -0.109972968297    -1.204617814717     1.888632846302
    C           -0.149183591463    -1.189155138060     0.499068373718
    C           -0.046038986155     0.047396741695    -1.647856166782
    H            0.075036508011     2.196543660283     0.011758630663
    H            0.164293565805     2.145448916940     2.478837353492
    H            0.033110745918    -0.022433222898     3.684068357989
    H           -0.164964064050    -2.149682264765     2.418934153338
    H           -0.204209946255    -2.126308197911    -0.046693983129
    N           -0.701773387888    -0.881748366293    -2.384893811025
    N            0.686763202846     0.932796816885    -2.310847952588
    H            0.613695171839     1.024207694873    -3.318480397817
    H            1.343587853305     1.533708985685    -1.828839428061
    H           -0.168528743848    -1.462780225988    -3.025728060342
    H           -1.390681150330    -1.425973523480    -1.876612026011

  Dipole Moment: [D]
     X:     0.9315      Y:    -0.2200      Z:    -4.5762     Total:     4.6752

  Mulliken Charges: (a.u.)
   Center  Symbol    Alpha    Beta     Spin     Total
       1     C     2.94649  2.94649  0.00000  0.10701
       2     C     3.08216  3.08216  0.00000 -0.16432
       3     C     3.06207  3.06207  0.00000 -0.12415
       4     C     3.05009  3.05009  0.00000 -0.10018
       5     C     3.06215  3.06215  0.00000 -0.12430
       6     C     3.07944  3.07944  0.00000 -0.15888
       7     C     2.75213  2.75213  0.00000  0.49574
       8     H     0.41253  0.41253  0.00000  0.17495
       9     H     0.40373  0.40373  0.00000  0.19253
      10     H     0.40180  0.40180  0.00000  0.19639
      11     H     0.40393  0.40393  0.00000  0.19213
      12     H     0.41737  0.41737  0.00000  0.16525
      13     N     3.86398  3.86398  0.00000 -0.72796
      14     N     3.84812  3.84812  0.00000 -0.69623
      15     H     0.30069  0.30069  0.00000  0.39862
      16     H     0.30066  0.30066  0.00000  0.39869
      17     H     0.30446  0.30446  0.00000  0.39108
      18     H     0.30818  0.30818  0.00000  0.38363

   Total alpha = 32.00000, Total beta = 32.00000, Total charge =  1.00000

*** Psi4 exiting successfully. Buy a developer a beer!
