                               Psi4 1.2.1 release

  ==> Input File <==

--------------------------------------------------------------------------
set_num_threads(1)
set_memory('5348 MB')

set { scf_mem_safety_factor 0.7 }

set { reference rks }
set { basis cc-pVDZ }

molecule MOL {
    0 1
    noreorient
    nocom
    symmetry c1
    O    1.050400   0.042900  -0.048100
    C    2.474100   0.047400  -0.029000
    C    3.002600  -1.068900  -0.932000
    N    2.086730  -2.206749  -0.995091
    H    0.760400   0.728400   0.578000
    H    2.809900  -0.097900   1.003200
    H    2.817400   1.026800  -0.378600
    H    3.983388  -1.403032  -0.574021
    H    3.163171  -0.672697  -1.941107
    H    2.032562  -2.647740  -0.077444
    H    2.480283  -2.910382  -1.619805
}

set optking { frozen_dihedral = (" 1 2 3 4 ") }

energy, wfn = energy('B3LYP-D3', return_wfn=True)

import os
os.chdir(os.environ['HTMD_PSI4_WORKDIR'])

oeprop(wfn, 'DIPOLE', 'QUADRUPOLE', 'MULLIKEN_CHARGES')

with open('psi4out.xyz', 'w') as f:
    f.write('11 ' )
    f.write('%.12f\n' % energy)
    f.write(MOL.save_string_xyz())
--------------------------------------------------------------------------

    Molecular point group: c1

    Geometry (in Angstrom), charge = 0, multiplicity = 1:

       Center              X                  Y                   Z               Mass
    ------------   -----------------  -----------------  -----------------  -----------------
         O            1.050400000000     0.042900000000    -0.048100000000    15.994914619560
         C            2.474100000000     0.047400000000    -0.029000000000    12.000000000000
         C            3.002600000000    -1.068900000000    -0.932000000000    12.000000000000
         N            2.086730000000    -2.206749000000    -0.995091000000    14.003074004780
         H            0.760400000000     0.728400000000     0.578000000000     1.007825032070
         H            2.809900000000    -0.097900000000     1.003200000000     1.007825032070
         H            2.817400000000     1.026800000000    -0.378600000000     1.007825032070
         H            3.983388000000    -1.403032000000    -0.574021000000     1.007825032070
         H            3.163171000000    -0.672697000000    -1.941107000000     1.007825032070
         H            2.032562000000    -2.647740000000    -0.077444000000     1.007825032070
         H            2.480283000000    -2.910382000000    -1.619805000000     1.007825032070

  Charge       = 0
  Multiplicity = 1
  Basis Set: CC-PVDZ
    Blend: CC-PVDZ
  Basis Set: (CC-PVDZ AUX)
    Blend: CC-PVDZ-JKFIT

    Orbital Energies [Eh]
    ---------------------

    Doubly Occupied:

       1A    -19.120181     2A    -14.295619     3A    -10.223282
       4A    -10.201878     5A     -1.004058     6A     -0.868564
       7A     -0.713929     8A     -0.591770     9A     -0.507313
      10A     -0.484026    11A     -0.439762    12A     -0.416070
      13A     -0.387098    14A     -0.361441    15A     -0.317816
      16A     -0.254162    17A     -0.220909

  @DF-RKS Final Energy:  -210.38348391446121

   => Energetics <=

    Nuclear Repulsion Energy =            133.6221481794425756
    One-Electron Energy =                -550.3129095731661664
    Two-Electron Energy =                 229.7996119301568285
    DFT Exchange-Correlation Energy =     -23.4874527908944124
    Empirical Dispersion Energy =          -0.0048816600000000
    VV10 Nonlocal Energy =                  0.0000000000000000
    Total Energy =                       -210.3834839144612090

  Dipole Moment: [D]
     X:     1.7197      Y:     0.3379      Z:     1.2059     Total:     2.1274

  Mulliken Charges: (a.u.)
   Center  Symbol    Alpha    Beta     Spin     Total
       1     O     4.13065  4.13065  0.00000 -0.26131
       2     C     2.93353  2.93353  0.00000  0.13294
       3     C     2.98458  2.98458  0.00000  0.03084
       4     N     3.57947  3.57947  0.00000 -0.15895
       5     H     0.43303  0.43303  0.00000  0.13395
       6     H     0.50431  0.50431  0.00000 -0.00862
       7     H     0.50137  0.50137  0.00000 -0.00274
       8     H     0.50614  0.50614  0.00000 -0.01228
       9     H     0.49207  0.49207  0.00000  0.01587
      10     H     0.46753  0.46753  0.00000  0.06494
      11     H     0.46733  0.46733  0.00000  0.06535

   Total alpha = 17.00000, Total beta = 17.00000, Total charge = -0.00000

*** Psi4 exiting successfully. Buy a developer a beer!
