                               Psi4 1.2.1 release

  ==> Input File <==

--------------------------------------------------------------------------
set_num_threads(4)
set_memory('3000 MB')

set { scf_mem_safety_factor 0.7 }

set { reference rks }
set { basis 6-31G* }

molecule MOL {
    1 1
    noreorient
    nocom
    symmetry c1
    C   -0.000000  -0.000000  -0.177864
    C    0.036678   1.219374   0.524165
    C    0.031765   1.213120   1.915444
    C    0.000000   0.000000   2.610107
    C   -0.031765  -1.213120   1.915444
    C   -0.036678  -1.219375   0.524165
    C   -0.000000   0.000000  -1.644734
    H    0.018170   2.164705  -0.010854
    H    0.042402   2.152895   2.457886
    H    0.000000   0.000000   3.695756
    H   -0.042402  -2.152895   2.457886
    H   -0.018170  -2.164705  -0.010853
    N   -0.712590  -0.905950  -2.308461
    N    0.712590   0.905950  -2.308460
    H    0.673432   1.006470  -3.315997
    H    1.377190   1.485970  -1.813316
    H   -0.242311  -1.641143  -2.819942
    H   -1.724821  -0.940417  -2.277364
}

set optking { frozen_dihedral = (" 1 7 13 17 ") }

set optking { dynamic_level = 1
 geom_maxiter = 250
 print_trajectory_xyz_file = True }

energy, wfn = optimize('B3LYP-D3', return_wfn=True)

import os
os.chdir(os.environ['HTMD_PSI4_WORKDIR'])

oeprop(wfn, 'DIPOLE', 'QUADRUPOLE', 'MULLIKEN_CHARGES')

with open('psi4out.xyz', 'w') as f:
    f.write('18 ' )
    f.write('%.12f\n' % energy)
    f.write(MOL.save_string_xyz())
--------------------------------------------------------------------------

    Molecular point group: c1
  Charge       = 1
  Multiplicity = 1
  Basis Set: 6-31G*
    Blend: 6-31G*
  Basis Set: (6-31G* AUX)
    Blend: CC-PVDZ-JKFIT
  @DF-RKS Final Energy:  -381.43903079840760
    Total Energy =                       -381.4390307984076003
    Molecular point group: c1
  Basis Set: 6-31G*
    Blend: 6-31G*
  Basis Set: (6-31G* AUX)
    Blend: CC-PVDZ-JKFIT
  Basis Set: 6-31G*
    Blend: 6-31G*
  Basis Set: (6-31G* AUX)
    Blend: CC-PVDZ-JKFIT
  @DF-RKS Final Energy:  -381.44830954123006
    Total Energy =                       -381.4483095412300031
  Basis Set: 6-31G*
    Blend: 6-31G*
  Basis Set: (6-31G* AUX)
    Blend: CC-PVDZ-JKFIT
  Basis Set: 6-31G*
    Blend: 6-31G*
  @DF-RKS Final Energy:  -381.45270423048549
    Total Energy =                       -381.4527042304854376
  @DF-RKS Final Energy:  -381.43600687311306
    Total Energy =                       -381.4360068731130013
  @DF-RKS Final Energy:  -381.45624164913710
    Total Energy =                       -381.4562416491370982
  @DF-RKS Final Energy:  -381.45667374904821
    Total Energy =                       -381.4566737490482069
  @DF-RKS Final Energy:  -381.45681259715599
    Total Energy =                       -381.4568125971559311
  Basis Set: (6-31G* AUX)
    Blend: CC-PVDZ-JKFIT
  Basis Set: 6-31G*
    Blend: 6-31G*
  Basis Set: (6-31G* AUX)
    Blend: CC-PVDZ-JKFIT
  @DF-RKS Final Energy:  -381.45682155302893
    Total Energy =                       -381.4568215530289308
  Basis Set: 6-31G*
    Blend: 6-31G*
  Basis Set: (6-31G* AUX)
    Blend: CC-PVDZ-JKFIT
  Charge       = 1
  Multiplicity = 1
  Basis Set: 6-31G*
    Blend: 6-31G*
  Basis Set: (6-31G* AUX)
    Blend: CC-PVDZ-JKFIT

    Orbital Energies [Eh]
    ---------------------

    Doubly Occupied:

       1A    -14.574644     2A    -14.547002     3A    -10.496415
       4A    -10.378502     5A    -10.364916     6A    -10.363898
       7A    -10.352995     8A    -10.347593     9A    -10.347557
      10A     -1.179464    11A     -1.083887    12A     -1.020663
      13A     -0.930836    14A     -0.909669    15A     -0.843092
      16A     -0.784469    17A     -0.772423    18A     -0.739453
      19A     -0.725658    20A     -0.680686    21A     -0.674820
      22A     -0.634919    23A     -0.614177    24A     -0.589491
      25A     -0.584700    26A     -0.565140    27A     -0.524004
      28A     -0.513426    29A     -0.504610    30A     -0.469555
      31A     -0.420504    32A     -0.413188

  @DF-RKS Final Energy:  -381.45682243148980

   => Energetics <=

    Nuclear Repulsion Energy =            416.4028748961410429
    One-Electron Energy =               -1327.8728771700903053
    Two-Electron Energy =                 574.4216491850148714
    DFT Exchange-Correlation Energy =     -44.3964463825553537
    Empirical Dispersion Energy =          -0.0120229600000000
    VV10 Nonlocal Energy =                  0.0000000000000000
    Total Energy =                       -381.4568224314897975
    Molecular point group: c1
  Basis Set: 6-31G*
    Blend: 6-31G*
  Basis Set: (6-31G* AUX)
    Blend: CC-PVDZ-JKFIT

  -Total Gradient:
     Atom            X                  Y                   Z
    ------   -----------------  -----------------  -----------------
       1        0.007805944551    -0.005158522786    -0.002529365263
       2        0.000000500552    -0.000035369815     0.000045411758
       3        0.000013044093     0.000016828881    -0.000033297791
       4       -0.000012429769    -0.000046100529    -0.000037628329
       5       -0.000001299569     0.000024508026     0.000004433397
       6       -0.000003897642     0.000006758080     0.000067874593
       7       -0.011239948991     0.005439429709     0.007307366036
       8       -0.000000739823    -0.000006450260     0.000022963454
       9       -0.000009576547    -0.000021628811    -0.000013705375
      10       -0.000013490077     0.000000046311    -0.000017851937
      11       -0.000000302704     0.000008258265    -0.000005707546
      12        0.000032058076     0.000018436939     0.000033119276
      13        0.000278526282     0.007938617147    -0.014410142710
      14       -0.000012973525     0.000009919701    -0.000053145160
      15        0.000008350230    -0.000010144155     0.000037007769
      16       -0.000023691541    -0.000033451416    -0.000030772608
      17        0.003145311227    -0.008189952771     0.009693019559
      18        0.000024705337     0.000031215472    -0.000098352104

  **** Optimization is complete! (in 9 steps) ****
    Final optimized geometry and variables:
    Molecular point group: c1

    Geometry (in Angstrom), charge = 1, multiplicity = 1:

    C           -0.102354089870     0.043081216529    -0.167753073266
    C            0.210071628215     1.245770913475     0.502895101224
    C            0.653455987457     1.210049215207     1.818388882696
    C            0.785821852597    -0.018399553365     2.476941461472
    C            0.468516205159    -1.213822051273     1.823384595030
    C            0.016380734442    -1.188714228584     0.509372567050
    C           -0.526770962176     0.060812835972    -1.559946507370
    H            0.057508523999     2.203441318057     0.012628247290
    H            0.880978439935     2.134906739758     2.338151216962
    H            1.132378290455    -0.042956498202     3.505587966426
    H            0.579869925541    -2.162931071636     2.337308150865
    H           -0.195139587001    -2.122186446891    -0.003019137187
    N           -1.330524649207    -0.896083256026    -2.107334336973
    N           -0.049988339839     0.968967710886    -2.398865704474
    H           -0.418846703824     1.045396112506    -3.341113262861
    H            0.696300997960     1.598073912668    -2.129046365947
    H           -0.909888032229    -1.530914406556    -2.781643041298
    H           -1.864280221609    -1.423613462529    -1.422928759642

  Dipole Moment: [D]
     X:    -0.2221      Y:    -0.0982      Z:    -4.3716     Total:     4.3783

  Mulliken Charges: (a.u.)
   Center  Symbol    Alpha    Beta     Spin     Total
       1     C     2.94295  2.94295  0.00000  0.11410
       2     C     3.08259  3.08259  0.00000 -0.16518
       3     C     3.06191  3.06191  0.00000 -0.12382
       4     C     3.04980  3.04980  0.00000 -0.09960
       5     C     3.06198  3.06198  0.00000 -0.12397
       6     C     3.07907  3.07907  0.00000 -0.15815
       7     C     2.76099  2.76099  0.00000  0.47801
       8     H     0.41243  0.41243  0.00000  0.17514
       9     H     0.40333  0.40333  0.00000  0.19333
      10     H     0.40130  0.40130  0.00000  0.19740
      11     H     0.40352  0.40352  0.00000  0.19295
      12     H     0.41789  0.41789  0.00000  0.16422
      13     N     3.86483  3.86483  0.00000 -0.72967
      14     N     3.84288  3.84288  0.00000 -0.68577
      15     H     0.29918  0.29918  0.00000  0.40165
      16     H     0.30074  0.30074  0.00000  0.39851
      17     H     0.30423  0.30423  0.00000  0.39154
      18     H     0.31035  0.31035  0.00000  0.37930

   Total alpha = 32.00000, Total beta = 32.00000, Total charge =  1.00000

*** Psi4 exiting successfully. Buy a developer a beer!
