                               Psi4 1.2.1 release

  ==> Input File <==

--------------------------------------------------------------------------
set_num_threads(1)
set_memory('5348 MB')

set { scf_mem_safety_factor 0.7 }

set { reference rks }
set { basis cc-pVDZ }

molecule MOL {
    0 1
    noreorient
    nocom
    symmetry c1
    O    1.050400   0.042900  -0.048100
    C    2.474100   0.047400  -0.029000
    C    3.002600  -1.068900  -0.932000
    N    4.462700  -1.072400  -1.006800
    H    0.758479   0.055901   0.879599
    H    2.809900  -0.097900   1.003200
    H    2.817400   1.026800  -0.378600
    H    2.581000  -0.963300  -1.938400
    H    2.653800  -2.036400  -0.553400
    H    4.779000  -0.221000  -1.470000
    H    4.758600  -1.842500  -1.606500
}

set optking { frozen_dihedral = (" 3 2 1 5 ") }

energy, wfn = energy('B3LYP-D3', return_wfn=True)

import os
os.chdir(os.environ['HTMD_PSI4_WORKDIR'])

oeprop(wfn, 'DIPOLE', 'QUADRUPOLE', 'MULLIKEN_CHARGES')

with open('psi4out.xyz', 'w') as f:
    f.write('11 ' )
    f.write('%.12f\n' % energy)
    f.write(MOL.save_string_xyz())
--------------------------------------------------------------------------

    Molecular point group: c1

    Geometry (in Angstrom), charge = 0, multiplicity = 1:

       Center              X                  Y                   Z               Mass
    ------------   -----------------  -----------------  -----------------  -----------------
         O            1.050400000000     0.042900000000    -0.048100000000    15.994914619560
         C            2.474100000000     0.047400000000    -0.029000000000    12.000000000000
         C            3.002600000000    -1.068900000000    -0.932000000000    12.000000000000
         N            4.462700000000    -1.072400000000    -1.006800000000    14.003074004780
         H            0.758479000000     0.055901000000     0.879599000000     1.007825032070
         H            2.809900000000    -0.097900000000     1.003200000000     1.007825032070
         H            2.817400000000     1.026800000000    -0.378600000000     1.007825032070
         H            2.581000000000    -0.963300000000    -1.938400000000     1.007825032070
         H            2.653800000000    -2.036400000000    -0.553400000000     1.007825032070
         H            4.779000000000    -0.221000000000    -1.470000000000     1.007825032070
         H            4.758600000000    -1.842500000000    -1.606500000000     1.007825032070

  Charge       = 0
  Multiplicity = 1
  Basis Set: CC-PVDZ
    Blend: CC-PVDZ
  Basis Set: (CC-PVDZ AUX)
    Blend: CC-PVDZ-JKFIT

    Orbital Energies [Eh]
    ---------------------

    Doubly Occupied:

       1A    -19.127893     2A    -14.303775     3A    -10.224160
       4A    -10.199720     5A     -1.010418     6A     -0.875773
       7A     -0.711128     8A     -0.598829     9A     -0.510011
      10A     -0.484630    11A     -0.444251    12A     -0.423367
      13A     -0.388408    14A     -0.361737    15A     -0.322730
      16A     -0.263385    17A     -0.230076

  @DF-RKS Final Energy:  -210.39068626948546

   => Energetics <=

    Nuclear Repulsion Energy =            130.4936739863905473
    One-Electron Energy =                -543.9257691889898751
    Two-Electron Energy =                 226.5331824183652998
    DFT Exchange-Correlation Energy =     -23.4868332852514179
    Empirical Dispersion Energy =          -0.0049402000000000
    VV10 Nonlocal Energy =                  0.0000000000000000
    Total Energy =                       -210.3906862694854283

  Dipole Moment: [D]
     X:     0.4274      Y:     0.0103      Z:     0.1566     Total:     0.4553

  Mulliken Charges: (a.u.)
   Center  Symbol    Alpha    Beta     Spin     Total
       1     O     4.13938  4.13938  0.00000 -0.27877
       2     C     2.93091  2.93091  0.00000  0.13817
       3     C     2.98383  2.98383  0.00000  0.03234
       4     N     3.59454  3.59454  0.00000 -0.18908
       5     H     0.42887  0.42887  0.00000  0.14227
       6     H     0.49787  0.49787  0.00000  0.00427
       7     H     0.49989  0.49989  0.00000  0.00021
       8     H     0.50063  0.50063  0.00000 -0.00125
       9     H     0.49460  0.49460  0.00000  0.01080
      10     H     0.46556  0.46556  0.00000  0.06887
      11     H     0.46391  0.46391  0.00000  0.07217

   Total alpha = 17.00000, Total beta = 17.00000, Total charge = -0.00000

*** Psi4 exiting successfully. Buy a developer a beer!
