                               Psi4 1.2.1 release

  ==> Input File <==

--------------------------------------------------------------------------
set_num_threads(4)
set_memory('3000 MB')

set { scf_mem_safety_factor 0.7 }

set { reference rks }
set { basis 6-31G* }

molecule MOL {
    1 1
    noreorient
    nocom
    symmetry c1
    C   -0.000000  -0.000000  -0.177864
    C    0.036678   1.219374   0.524165
    C    0.031765   1.213120   1.915444
    C    0.000000   0.000000   2.610107
    C   -0.031765  -1.213120   1.915444
    C   -0.036678  -1.219375   0.524165
    C   -0.000000   0.000000  -1.644734
    H    0.018170   2.164705  -0.010854
    H    0.042402   2.152895   2.457886
    H    0.000000   0.000000   3.695756
    H   -0.042402  -2.152895   2.457886
    H   -0.018170  -2.164705  -0.010853
    N   -0.712590  -0.905950  -2.308461
    N    0.712590   0.905950  -2.308460
    H    0.673432   1.006470  -3.315997
    H    1.377190   1.485970  -1.813316
    H   -0.596462  -1.004655  -3.308489
    H   -1.332872  -1.562465  -1.849108
}

set optking { frozen_dihedral = (" 1 7 13 17 ") }

set optking { dynamic_level = 1
 geom_maxiter = 250
 print_trajectory_xyz_file = True }

energy, wfn = optimize('B3LYP-D3', return_wfn=True)

import os
os.chdir(os.environ['HTMD_PSI4_WORKDIR'])

oeprop(wfn, 'DIPOLE', 'QUADRUPOLE', 'MULLIKEN_CHARGES')

with open('psi4out.xyz', 'w') as f:
    f.write('18 ' )
    f.write('%.12f\n' % energy)
    f.write(MOL.save_string_xyz())
--------------------------------------------------------------------------

    Molecular point group: c1
  Charge       = 1
  Multiplicity = 1
  Basis Set: 6-31G*
    Blend: 6-31G*
  Basis Set: (6-31G* AUX)
    Blend: CC-PVDZ-JKFIT
  @DF-RKS Final Energy:  -381.46998378256893
    Total Energy =                       -381.4699837825689883
    Molecular point group: c1
  Basis Set: 6-31G*
    Blend: 6-31G*
  Basis Set: (6-31G* AUX)
    Blend: CC-PVDZ-JKFIT
  Basis Set: 6-31G*
    Blend: 6-31G*
  Basis Set: (6-31G* AUX)
    Blend: CC-PVDZ-JKFIT
  @DF-RKS Final Energy:  -381.47042010920615
    Total Energy =                       -381.4704201092061453
  Basis Set: 6-31G*
    Blend: 6-31G*
  Basis Set: (6-31G* AUX)
    Blend: CC-PVDZ-JKFIT
  Basis Set: 6-31G*
    Blend: 6-31G*
  @DF-RKS Final Energy:  -381.47042010920177
    Total Energy =                       -381.4704201092017684
  @DF-RKS Final Energy:  -381.47044656216093
    Total Energy =                       -381.4704465621609870
  Basis Set: (6-31G* AUX)
    Blend: CC-PVDZ-JKFIT
  Basis Set: 6-31G*
    Blend: 6-31G*
  Basis Set: (6-31G* AUX)
    Blend: CC-PVDZ-JKFIT
  @DF-RKS Final Energy:  -381.47045861406735
    Total Energy =                       -381.4704586140672973
  Basis Set: 6-31G*
    Blend: 6-31G*
  Basis Set: (6-31G* AUX)
    Blend: CC-PVDZ-JKFIT
  Charge       = 1
  Multiplicity = 1
  Basis Set: 6-31G*
    Blend: 6-31G*
  Basis Set: (6-31G* AUX)
    Blend: CC-PVDZ-JKFIT

    Orbital Energies [Eh]
    ---------------------

    Doubly Occupied:

       1A    -14.567856     2A    -14.567720     3A    -10.496970
       4A    -10.373186     5A    -10.356347     6A    -10.356187
       7A    -10.343180     8A    -10.340538     9A    -10.340474
      10A     -1.183602    11A     -1.091669    12A     -1.014334
      13A     -0.926599    14A     -0.902301    15A     -0.845319
      16A     -0.785633    17A     -0.773173    18A     -0.741834
      19A     -0.732858    20A     -0.688872    21A     -0.669229
      22A     -0.625606    23A     -0.617177    24A     -0.586456
      25A     -0.579212    26A     -0.572736    27A     -0.518520
      28A     -0.505547    29A     -0.498161    30A     -0.472597
      31A     -0.411911    32A     -0.405816

  @DF-RKS Final Energy:  -381.47045935469220

   => Energetics <=

    Nuclear Repulsion Energy =            416.9133374990886978
    One-Electron Energy =               -1329.0364502256875312
    Two-Electron Energy =                 575.0705416320964787
    DFT Exchange-Correlation Energy =     -44.4059518501898225
    Empirical Dispersion Energy =          -0.0119364100000000
    VV10 Nonlocal Energy =                  0.0000000000000000
    Total Energy =                       -381.4704593546921387
    Molecular point group: c1
  Basis Set: 6-31G*
    Blend: 6-31G*
  Basis Set: (6-31G* AUX)
    Blend: CC-PVDZ-JKFIT

  -Total Gradient:
     Atom            X                  Y                   Z
    ------   -----------------  -----------------  -----------------
       1        0.000507757744    -0.000394522130     0.000034939914
       2        0.000002843613    -0.000008285461    -0.000013205922
       3       -0.000008155924    -0.000011788990     0.000017273237
       4        0.000011567144     0.000010793988     0.000003698202
       5        0.000005009917    -0.000001426740     0.000006852954
       6        0.000005316513     0.000017176930    -0.000019623209
       7       -0.000520649611     0.000300244343     0.000002266745
       8       -0.000007392993     0.000001048642     0.000005040920
       9       -0.000002711524     0.000001736132    -0.000000593887
      10       -0.000004519972     0.000002276604    -0.000001621102
      11       -0.000003650271     0.000000798914    -0.000002808406
      12       -0.000006746275    -0.000006186599    -0.000000164989
      13       -0.000657563502     0.000767506885    -0.000256594163
      14        0.000011428089    -0.000039636569     0.000016126187
      15        0.000000571480    -0.000006012011    -0.000005547401
      16       -0.000023518212     0.000007202536    -0.000000039423
      17        0.000661393784    -0.000653632491     0.000169193299
      18        0.000028056525     0.000014368749     0.000023287503

  **** Optimization is complete! (in 4 steps) ****
    Final optimized geometry and variables:
    Molecular point group: c1

    Geometry (in Angstrom), charge = 1, multiplicity = 1:

    C            0.002846448342    -0.001290248141    -0.179663454614
    C            0.032195731053     1.218003493542     0.523012916047
    C            0.025273399162     1.211254447716     1.914214183781
    C           -0.001719940805    -0.002396987389     2.608257647051
    C           -0.026761015681    -1.215400365926     1.913105135643
    C           -0.029564736519    -1.221117969272     0.521816917755
    C            0.007555337917    -0.001210922296    -1.646310623879
    H            0.009851888166     2.163309868281    -0.011927801185
    H            0.030329371554     2.150789849859     2.457164932554
    H           -0.003532261109    -0.002866396273     3.693914041823
    H           -0.033989018161    -2.155402638270     2.455214595719
    H           -0.006191658862    -2.166202440163    -0.013430724936
    N           -0.698423045324    -0.909552376193    -2.313820727095
    N            0.721386710674     0.905440696286    -2.307826833679
    H            0.681335255117     1.008434059474    -3.315116927903
    H            1.381461855637     1.488754582399    -1.810520373715
    H           -0.614467709975    -1.046131903177    -3.314328487465
    H           -1.356298611187    -1.499095750459    -1.821037415901

  Dipole Moment: [D]
     X:     0.1125      Y:    -0.0706      Z:    -5.7150     Total:     5.7165

  Mulliken Charges: (a.u.)
   Center  Symbol    Alpha    Beta     Spin     Total
       1     C     2.95696  2.95696  0.00000  0.08609
       2     C     3.08197  3.08197  0.00000 -0.16393
       3     C     3.06248  3.06248  0.00000 -0.12495
       4     C     3.05142  3.05142  0.00000 -0.10285
       5     C     3.06249  3.06249  0.00000 -0.12498
       6     C     3.08186  3.08186  0.00000 -0.16372
       7     C     2.72221  2.72221  0.00000  0.55558
       8     H     0.41408  0.41408  0.00000  0.17184
       9     H     0.40539  0.40539  0.00000  0.18921
      10     H     0.40383  0.40383  0.00000  0.19234
      11     H     0.40542  0.40542  0.00000  0.18915
      12     H     0.41453  0.41453  0.00000  0.17094
      13     N     3.86358  3.86358  0.00000 -0.72715
      14     N     3.86311  3.86311  0.00000 -0.72623
      15     H     0.30562  0.30562  0.00000  0.38876
      16     H     0.29973  0.29973  0.00000  0.40054
      17     H     0.30560  0.30560  0.00000  0.38880
      18     H     0.29971  0.29971  0.00000  0.40057

   Total alpha = 32.00000, Total beta = 32.00000, Total charge =  1.00000

*** Psi4 exiting successfully. Buy a developer a beer!
