                               Psi4 1.2.1 release

  ==> Input File <==

--------------------------------------------------------------------------
set_num_threads(1)
set_memory('5348 MB')

set { scf_mem_safety_factor 0.7 }

set { reference rks }
set { basis cc-pVDZ }

molecule MOL {
    0 1
    noreorient
    nocom
    symmetry c1
    O    1.141000   0.017000   0.083000
    C    2.558000   0.086000  -0.005000
    C    3.192000  -0.789000   1.067000
    O    2.463759  -2.003666   1.199740
    H    0.789000   0.590000  -0.620000
    H    2.874000   1.128000   0.115000
    H    2.871000  -0.243000  -1.001000
    H    3.200213  -0.268513   2.029789
    H    4.230471  -1.021570   0.805529
    H    2.909309  -2.520747   1.893280
}

set optking { frozen_dihedral = (" 1 2 3 4 ") }

energy, wfn = energy('B3LYP-D3', return_wfn=True)

import os
os.chdir(os.environ['HTMD_PSI4_WORKDIR'])

oeprop(wfn, 'DIPOLE', 'QUADRUPOLE', 'MULLIKEN_CHARGES')

with open('psi4out.xyz', 'w') as f:
    f.write('10 ' )
    f.write('%.12f\n' % energy)
    f.write(MOL.save_string_xyz())
--------------------------------------------------------------------------

    Molecular point group: c1

    Geometry (in Angstrom), charge = 0, multiplicity = 1:

       Center              X                  Y                   Z               Mass
    ------------   -----------------  -----------------  -----------------  -----------------
         O            1.141000000000     0.017000000000     0.083000000000    15.994914619560
         C            2.558000000000     0.086000000000    -0.005000000000    12.000000000000
         C            3.192000000000    -0.789000000000     1.067000000000    12.000000000000
         O            2.463759000000    -2.003666000000     1.199740000000    15.994914619560
         H            0.789000000000     0.590000000000    -0.620000000000     1.007825032070
         H            2.874000000000     1.128000000000     0.115000000000     1.007825032070
         H            2.871000000000    -0.243000000000    -1.001000000000     1.007825032070
         H            3.200213000000    -0.268513000000     2.029789000000     1.007825032070
         H            4.230471000000    -1.021570000000     0.805529000000     1.007825032070
         H            2.909309000000    -2.520747000000     1.893280000000     1.007825032070

  Charge       = 0
  Multiplicity = 1
  Basis Set: CC-PVDZ
    Blend: CC-PVDZ
  Basis Set: (CC-PVDZ AUX)
    Blend: CC-PVDZ-JKFIT

    Orbital Energies [Eh]
    ---------------------

    Doubly Occupied:

       1A    -19.123613     2A    -19.123573     3A    -10.227002
       4A    -10.226814     5A     -1.016440     6A     -0.996465
       7A     -0.733988     8A     -0.600783     9A     -0.523860
      10A     -0.491311    11A     -0.448372    12A     -0.414234
      13A     -0.398869    14A     -0.335086    15A     -0.320397
      16A     -0.261215    17A     -0.253317

  @DF-RKS Final Energy:  -230.25165273297344

   => Energetics <=

    Nuclear Repulsion Energy =            132.5267529469224144
    One-Electron Energy =                -576.9350870432210741
    Two-Electron Energy =                 238.6979271466117325
    DFT Exchange-Correlation Energy =     -24.5370599532865299
    Empirical Dispersion Energy =          -0.0041858300000000
    VV10 Nonlocal Energy =                  0.0000000000000000
    Total Energy =                       -230.2516527329734402

  Dipole Moment: [D]
     X:     1.8078      Y:     1.0838      Z:    -0.1866     Total:     2.1161

  Mulliken Charges: (a.u.)
   Center  Symbol    Alpha    Beta     Spin     Total
       1     O     4.13185  4.13185  0.00000 -0.26369
       2     C     2.93414  2.93414  0.00000  0.13172
       3     C     2.93429  2.93429  0.00000  0.13141
       4     O     4.13207  4.13207  0.00000 -0.26413
       5     H     0.43078  0.43078  0.00000  0.13844
       6     H     0.50300  0.50300  0.00000 -0.00600
       7     H     0.50019  0.50019  0.00000 -0.00037
       8     H     0.50007  0.50007  0.00000 -0.00014
       9     H     0.50289  0.50289  0.00000 -0.00578
      10     H     0.43073  0.43073  0.00000  0.13854

   Total alpha = 17.00000, Total beta = 17.00000, Total charge = -0.00000

*** Psi4 exiting successfully. Buy a developer a beer!
