                               Psi4 1.2.1 release

  ==> Input File <==

--------------------------------------------------------------------------
set_num_threads(1)
set_memory('5348 MB')

set { scf_mem_safety_factor 0.7 }

set { reference rks }
set { basis cc-pVDZ }

molecule MOL {
    0 1
    noreorient
    nocom
    symmetry c1
    O    1.141000   0.017000   0.083000
    C    2.558000   0.086000  -0.005000
    C    3.192000  -0.789000   1.067000
    O    4.448277  -0.248743   1.458485
    H    0.789000   0.590000  -0.620000
    H    2.874000   1.128000   0.115000
    H    2.871000  -0.243000  -1.001000
    H    3.340205  -1.806414   0.691712
    H    2.539746  -0.850023   1.945475
    H    4.806505  -0.843437   2.140318
}

set optking { frozen_dihedral = (" 1 2 3 4 ") }

energy, wfn = energy('B3LYP-D3', return_wfn=True)

import os
os.chdir(os.environ['HTMD_PSI4_WORKDIR'])

oeprop(wfn, 'DIPOLE', 'QUADRUPOLE', 'MULLIKEN_CHARGES')

with open('psi4out.xyz', 'w') as f:
    f.write('10 ' )
    f.write('%.12f\n' % energy)
    f.write(MOL.save_string_xyz())
--------------------------------------------------------------------------

    Molecular point group: c1

    Geometry (in Angstrom), charge = 0, multiplicity = 1:

       Center              X                  Y                   Z               Mass
    ------------   -----------------  -----------------  -----------------  -----------------
         O            1.141000000000     0.017000000000     0.083000000000    15.994914619560
         C            2.558000000000     0.086000000000    -0.005000000000    12.000000000000
         C            3.192000000000    -0.789000000000     1.067000000000    12.000000000000
         O            4.448277000000    -0.248743000000     1.458485000000    15.994914619560
         H            0.789000000000     0.590000000000    -0.620000000000     1.007825032070
         H            2.874000000000     1.128000000000     0.115000000000     1.007825032070
         H            2.871000000000    -0.243000000000    -1.001000000000     1.007825032070
         H            3.340205000000    -1.806414000000     0.691712000000     1.007825032070
         H            2.539746000000    -0.850023000000     1.945475000000     1.007825032070
         H            4.806505000000    -0.843437000000     2.140318000000     1.007825032070

  Charge       = 0
  Multiplicity = 1
  Basis Set: CC-PVDZ
    Blend: CC-PVDZ
  Basis Set: (CC-PVDZ AUX)
    Blend: CC-PVDZ-JKFIT

    Orbital Energies [Eh]
    ---------------------

    Doubly Occupied:

       1A    -19.130733     2A    -19.130693     3A    -10.225749
       4A    -10.225557     5A     -1.018356     6A     -1.007584
       7A     -0.732417     8A     -0.603435     9A     -0.524756
      10A     -0.493243    11A     -0.457373    12A     -0.411846
      13A     -0.398093    14A     -0.349063    15A     -0.319822
      16A     -0.264549    17A     -0.260827

  @DF-RKS Final Energy:  -230.25518347049251

   => Energetics <=

    Nuclear Repulsion Energy =            129.6184004568576995
    One-Electron Energy =                -571.0052887518186253
    Two-Electron Energy =                 235.6764255542103115
    DFT Exchange-Correlation Energy =     -24.5403903597418811
    Empirical Dispersion Energy =          -0.0043303700000000
    VV10 Nonlocal Energy =                  0.0000000000000000
    Total Energy =                       -230.2551834704925113

  Dipole Moment: [D]
     X:     0.1366      Y:    -0.4108      Z:    -0.4182     Total:     0.6020

  Mulliken Charges: (a.u.)
   Center  Symbol    Alpha    Beta     Spin     Total
       1     O     4.14053  4.14053  0.00000 -0.28107
       2     C     2.93531  2.93531  0.00000  0.12939
       3     C     2.93548  2.93548  0.00000  0.12904
       4     O     4.14076  4.14076  0.00000 -0.28153
       5     H     0.42846  0.42846  0.00000  0.14307
       6     H     0.49609  0.49609  0.00000  0.00782
       7     H     0.49954  0.49954  0.00000  0.00092
       8     H     0.49941  0.49941  0.00000  0.00119
       9     H     0.49600  0.49600  0.00000  0.00800
      10     H     0.42841  0.42841  0.00000  0.14318

   Total alpha = 17.00000, Total beta = 17.00000, Total charge = -0.00000

*** Psi4 exiting successfully. Buy a developer a beer!
