                               Psi4 1.2.1 release

  ==> Input File <==

--------------------------------------------------------------------------
set_num_threads(1)
set_memory('5348 MB')

set { scf_mem_safety_factor 0.7 }

set { reference rks }
set { basis cc-pVDZ }

molecule MOL {
    0 1
    noreorient
    nocom
    symmetry c1
    O    1.141000   0.017000   0.083000
    C    2.558000   0.086000  -0.005000
    C    3.192000  -0.789000   1.067000
    O    2.253453  -1.753015   1.528708
    H    0.789000   0.590000  -0.620000
    H    2.874000   1.128000   0.115000
    H    2.871000  -0.243000  -1.001000
    H    3.523997  -0.177973   1.912199
    H    4.070010  -1.308190   0.666480
    H    2.708338  -2.281108   2.207740
}

set optking { frozen_dihedral = (" 1 2 3 4 ") }

energy, wfn = energy('B3LYP-D3', return_wfn=True)

import os
os.chdir(os.environ['HTMD_PSI4_WORKDIR'])

oeprop(wfn, 'DIPOLE', 'QUADRUPOLE', 'MULLIKEN_CHARGES')

with open('psi4out.xyz', 'w') as f:
    f.write('10 ' )
    f.write('%.12f\n' % energy)
    f.write(MOL.save_string_xyz())
--------------------------------------------------------------------------

    Molecular point group: c1

    Geometry (in Angstrom), charge = 0, multiplicity = 1:

       Center              X                  Y                   Z               Mass
    ------------   -----------------  -----------------  -----------------  -----------------
         O            1.141000000000     0.017000000000     0.083000000000    15.994914619560
         C            2.558000000000     0.086000000000    -0.005000000000    12.000000000000
         C            3.192000000000    -0.789000000000     1.067000000000    12.000000000000
         O            2.253453000000    -1.753015000000     1.528708000000    15.994914619560
         H            0.789000000000     0.590000000000    -0.620000000000     1.007825032070
         H            2.874000000000     1.128000000000     0.115000000000     1.007825032070
         H            2.871000000000    -0.243000000000    -1.001000000000     1.007825032070
         H            3.523997000000    -0.177973000000     1.912199000000     1.007825032070
         H            4.070010000000    -1.308190000000     0.666480000000     1.007825032070
         H            2.708338000000    -2.281108000000     2.207740000000     1.007825032070

  Charge       = 0
  Multiplicity = 1
  Basis Set: CC-PVDZ
    Blend: CC-PVDZ
  Basis Set: (CC-PVDZ AUX)
    Blend: CC-PVDZ-JKFIT

    Orbital Energies [Eh]
    ---------------------

    Doubly Occupied:

       1A    -19.122462     2A    -19.122413     3A    -10.226056
       4A    -10.225872     5A     -1.016432     6A     -0.994355
       7A     -0.733987     8A     -0.599536     9A     -0.526454
      10A     -0.481968    11A     -0.456336    12A     -0.413641
      13A     -0.394639    14A     -0.328563    15A     -0.322948
      16A     -0.266113    17A     -0.245331

  @DF-RKS Final Energy:  -230.24625057805628

   => Energetics <=

    Nuclear Repulsion Energy =            133.0787005849257980
    One-Electron Energy =                -578.0630192459841510
    Two-Electron Energy =                 239.2819704386999433
    DFT Exchange-Correlation Energy =     -24.5398709556978787
    Empirical Dispersion Energy =          -0.0040314000000000
    VV10 Nonlocal Energy =                  0.0000000000000000
    Total Energy =                       -230.2462505780563049

  Dipole Moment: [D]
     X:     1.9457      Y:     0.8548      Z:    -0.4550     Total:     2.1734

  Mulliken Charges: (a.u.)
   Center  Symbol    Alpha    Beta     Spin     Total
       1     O     4.12939  4.12939  0.00000 -0.25879
       2     C     2.93504  2.93504  0.00000  0.12991
       3     C     2.93519  2.93519  0.00000  0.12963
       4     O     4.12962  4.12962  0.00000 -0.25923
       5     H     0.43159  0.43159  0.00000  0.13682
       6     H     0.50252  0.50252  0.00000 -0.00505
       7     H     0.50141  0.50141  0.00000 -0.00282
       8     H     0.50129  0.50129  0.00000 -0.00257
       9     H     0.50241  0.50241  0.00000 -0.00482
      10     H     0.43154  0.43154  0.00000  0.13692

   Total alpha = 17.00000, Total beta = 17.00000, Total charge =  0.00000

*** Psi4 exiting successfully. Buy a developer a beer!
