                               Psi4 1.2.1 release

  ==> Input File <==

--------------------------------------------------------------------------
set_num_threads(4)
set_memory('3000 MB')

set { scf_mem_safety_factor 0.7 }

set { reference rks }
set { basis 6-31G* }

molecule MOL {
    1 1
    noreorient
    nocom
    symmetry c1
    C   -0.000000  -0.000000  -0.177864
    C    0.036678   1.219374   0.524165
    C    0.031765   1.213120   1.915444
    C    0.000000   0.000000   2.610107
    C   -0.031765  -1.213120   1.915444
    C   -0.036678  -1.219375   0.524165
    C   -0.000000   0.000000  -1.644734
    H    0.018170   2.164705  -0.010854
    H    0.042402   2.152895   2.457886
    H    0.000000   0.000000   3.695756
    H   -0.042402  -2.152895   2.457886
    H   -0.018170  -2.164705  -0.010853
    N   -1.152098   0.034654  -2.308460
    N    1.152097  -0.034654  -2.308461
    H    1.209665   0.056579  -3.315997
    H    2.013552  -0.224422  -1.813317
    H   -2.013552   0.224422  -1.813316
    H   -1.209665  -0.056578  -3.315997
}

set optking { frozen_dihedral = (" 2 1 7 13 ") }

set optking { dynamic_level = 1
 geom_maxiter = 250
 print_trajectory_xyz_file = True }

energy, wfn = optimize('B3LYP-D3', return_wfn=True)

import os
os.chdir(os.environ['HTMD_PSI4_WORKDIR'])

oeprop(wfn, 'DIPOLE', 'QUADRUPOLE', 'MULLIKEN_CHARGES')

with open('psi4out.xyz', 'w') as f:
    f.write('18 ' )
    f.write('%.12f\n' % energy)
    f.write(MOL.save_string_xyz())
--------------------------------------------------------------------------

    Molecular point group: c1
  Charge       = 1
  Multiplicity = 1
  Basis Set: 6-31G*
    Blend: 6-31G*
  Basis Set: (6-31G* AUX)
    Blend: CC-PVDZ-JKFIT
  @DF-RKS Final Energy:  -381.46194146498806
    Total Energy =                       -381.4619414649880582
    Molecular point group: c1
  Basis Set: 6-31G*
    Blend: 6-31G*
  Basis Set: (6-31G* AUX)
    Blend: CC-PVDZ-JKFIT
  Basis Set: 6-31G*
    Blend: 6-31G*
  Basis Set: (6-31G* AUX)
    Blend: CC-PVDZ-JKFIT
  @DF-RKS Final Energy:  -381.46364553167086
    Total Energy =                       -381.4636455316709203
  Basis Set: 6-31G*
    Blend: 6-31G*
  Basis Set: (6-31G* AUX)
    Blend: CC-PVDZ-JKFIT
  Basis Set: 6-31G*
    Blend: 6-31G*
  @DF-RKS Final Energy:  -381.46398222705864
    Total Energy =                       -381.4639822270586365
  @DF-RKS Final Energy:  -381.46400568128956
    Total Energy =                       -381.4640056812895637
  Basis Set: (6-31G* AUX)
    Blend: CC-PVDZ-JKFIT
  Basis Set: 6-31G*
    Blend: 6-31G*
  Basis Set: (6-31G* AUX)
    Blend: CC-PVDZ-JKFIT
  @DF-RKS Final Energy:  -381.46401022467495
    Total Energy =                       -381.4640102246748938
  Basis Set: 6-31G*
    Blend: 6-31G*
  Basis Set: (6-31G* AUX)
    Blend: CC-PVDZ-JKFIT
  Charge       = 1
  Multiplicity = 1
  Basis Set: 6-31G*
    Blend: 6-31G*
  Basis Set: (6-31G* AUX)
    Blend: CC-PVDZ-JKFIT

    Orbital Energies [Eh]
    ---------------------

    Doubly Occupied:

       1A    -14.577051     2A    -14.577038     3A    -10.503717
       4A    -10.367583     5A    -10.348148     6A    -10.348138
       7A    -10.332921     8A    -10.332768     9A    -10.331803
      10A     -1.191335    11A     -1.100470    12A     -1.008185
      13A     -0.921473    14A     -0.894291    15A     -0.845773
      16A     -0.788444    17A     -0.764943    18A     -0.755911
      19A     -0.727768    20A     -0.692342    21A     -0.666561
      22A     -0.623962    23A     -0.615002    24A     -0.577231
      25A     -0.572443    26A     -0.566684    27A     -0.514988
      28A     -0.495674    29A     -0.490878    30A     -0.480801
      31A     -0.403740    32A     -0.397434

  @DF-RKS Final Energy:  -381.46401072250239

   => Energetics <=

    Nuclear Repulsion Energy =            416.1223078890537295
    One-Electron Energy =               -1327.5956424074165625
    Two-Electron Energy =                 574.4249559792579021
    DFT Exchange-Correlation Energy =     -44.4040058333974486
    Empirical Dispersion Energy =          -0.0116263500000000
    VV10 Nonlocal Energy =                  0.0000000000000000
    Total Energy =                       -381.4640107225023939
    Molecular point group: c1
  Basis Set: 6-31G*
    Blend: 6-31G*
  Basis Set: (6-31G* AUX)
    Blend: CC-PVDZ-JKFIT

  -Total Gradient:
     Atom            X                  Y                   Z
    ------   -----------------  -----------------  -----------------
       1       -0.000000928403    -0.000045669730     0.000046467488
       2        0.000032524603     0.000008578329    -0.000020088031
       3       -0.000015610351     0.000005003714    -0.000000314883
       4       -0.000012211687    -0.000003769654    -0.000008279338
       5        0.000012596814     0.000001232240     0.000007993884
       6       -0.000025331115     0.000020004142    -0.000018978462
       7        0.000028743764    -0.000001110726    -0.000043280961
       8       -0.000011007468     0.000000279220     0.000002488088
       9        0.000002114195    -0.000003053699     0.000002252554
      10        0.000004894420    -0.000000290342     0.000002381897
      11       -0.000000165154     0.000001707173     0.000002196933
      12        0.000010995057    -0.000001094026     0.000002814345
      13       -0.000019360783     0.000027518118     0.000030164659
      14       -0.000020628459     0.000025455891     0.000010968191
      15        0.000001786259    -0.000009351186     0.000023196498
      16       -0.000007968156    -0.000008857809    -0.000016902530
      17        0.000022723426    -0.000009297564    -0.000023364815
      18       -0.000003056338    -0.000007273112     0.000005535418

  **** Optimization is complete! (in 6 steps) ****
    Final optimized geometry and variables:
    Molecular point group: c1

    Geometry (in Angstrom), charge = 1, multiplicity = 1:

    C            0.000239645248    -0.000167648490    -0.173093760884
    C            0.040967987121     1.220890966948     0.514338741798
    C            0.040325954153     1.212242269178     1.908673500808
    C           -0.000188708893     0.000105758629     2.602534536736
    C           -0.040417706573    -1.212140724454     1.908882125560
    C           -0.040641761756    -1.221051909238     0.514530300401
    C            0.000097183380     0.000001038915    -1.658536095762
    H            0.072182383931     2.160478417758    -0.030022808537
    H            0.071583867678     2.151963313549     2.450754788064
    H           -0.000276474333     0.000198488247     3.688137452843
    H           -0.071753478140    -2.151775964753     2.451109969268
    H           -0.071729316719    -2.160754950899    -0.029643812146
    N           -1.155695080943     0.038558167541    -2.301630272537
    N            1.155632624788    -0.038063770108    -2.302051939979
    H            1.235507444883    -0.040909338074    -3.313900522225
    H            2.015630690915    -0.067155871225    -1.768190775577
    H           -2.015490820441     0.066572498096    -1.767423573370
    H           -1.235975434299     0.041009258380    -3.313467854464

  Dipole Moment: [D]
     X:    -0.0001      Y:    -0.0019      Z:    -6.5807     Total:     6.5807

  Mulliken Charges: (a.u.)
   Center  Symbol    Alpha    Beta     Spin     Total
       1     C     2.99542  2.99542  0.00000  0.00917
       2     C     3.07008  3.07008  0.00000 -0.14016
       3     C     3.06289  3.06289  0.00000 -0.12579
       4     C     3.05379  3.05379  0.00000 -0.10758
       5     C     3.06290  3.06290  0.00000 -0.12580
       6     C     3.07010  3.07010  0.00000 -0.14020
       7     C     2.74885  2.74885  0.00000  0.50231
       8     H     0.41373  0.41373  0.00000  0.17255
       9     H     0.40754  0.40754  0.00000  0.18492
      10     H     0.40701  0.40701  0.00000  0.18598
      11     H     0.40754  0.40754  0.00000  0.18492
      12     H     0.41373  0.41373  0.00000  0.17254
      13     N     3.84326  3.84326  0.00000 -0.68653
      14     N     3.84327  3.84327  0.00000 -0.68654
      15     H     0.30491  0.30491  0.00000  0.39018
      16     H     0.29503  0.29503  0.00000  0.40993
      17     H     0.29504  0.29504  0.00000  0.40993
      18     H     0.30491  0.30491  0.00000  0.39017

   Total alpha = 32.00000, Total beta = 32.00000, Total charge =  1.00000

*** Psi4 exiting successfully. Buy a developer a beer!
