                               Psi4 1.2.1 release

  ==> Input File <==

--------------------------------------------------------------------------
set_num_threads(4)
set_memory('3000 MB')

set { scf_mem_safety_factor 0.7 }

set { reference rks }
set { basis 6-31G* }

molecule MOL {
    1 1
    noreorient
    nocom
    symmetry c1
    C   -0.000000  -0.000000  -0.177864
    C    0.036678   1.219374   0.524165
    C    0.031765   1.213120   1.915444
    C    0.000000   0.000000   2.610107
    C   -0.031765  -1.213120   1.915444
    C   -0.036678  -1.219375   0.524165
    C   -0.000000   0.000000  -1.644734
    H    0.018170   2.164705  -0.010854
    H    0.042402   2.152895   2.457886
    H    0.000000   0.000000   3.695756
    H   -0.042402  -2.152895   2.457886
    H   -0.018170  -2.164705  -0.010853
    N   -0.712590  -0.905950  -2.308461
    N    0.712590   0.905950  -2.308460
    H    0.673432   1.006470  -3.315997
    H    1.377190   1.485970  -1.813316
    H   -1.684641  -1.055027  -2.071444
    H   -0.346373  -1.422110  -3.099808
}

set optking { frozen_dihedral = (" 1 7 13 17 ") }

set optking { dynamic_level = 1
 geom_maxiter = 250
 print_trajectory_xyz_file = True }

energy, wfn = optimize('B3LYP-D3', return_wfn=True)

import os
os.chdir(os.environ['HTMD_PSI4_WORKDIR'])

oeprop(wfn, 'DIPOLE', 'QUADRUPOLE', 'MULLIKEN_CHARGES')

with open('psi4out.xyz', 'w') as f:
    f.write('18 ' )
    f.write('%.12f\n' % energy)
    f.write(MOL.save_string_xyz())
--------------------------------------------------------------------------

    Molecular point group: c1
  Charge       = 1
  Multiplicity = 1
  Basis Set: 6-31G*
    Blend: 6-31G*
  Basis Set: (6-31G* AUX)
    Blend: CC-PVDZ-JKFIT
  @DF-RKS Final Energy:  -381.45508942297681
    Total Energy =                       -381.4550894229768119
    Molecular point group: c1
  Basis Set: 6-31G*
    Blend: 6-31G*
  Basis Set: (6-31G* AUX)
    Blend: CC-PVDZ-JKFIT
  Basis Set: 6-31G*
    Blend: 6-31G*
  Basis Set: (6-31G* AUX)
    Blend: CC-PVDZ-JKFIT
  @DF-RKS Final Energy:  -381.46112700816167
    Total Energy =                       -381.4611270081617249
  Basis Set: 6-31G*
    Blend: 6-31G*
  Basis Set: (6-31G* AUX)
    Blend: CC-PVDZ-JKFIT
  Basis Set: 6-31G*
    Blend: 6-31G*
  @DF-RKS Final Energy:  -381.46286337876415
    Total Energy =                       -381.4628633787642116
  @DF-RKS Final Energy:  -381.46483382752325
    Total Energy =                       -381.4648338275231936
  @DF-RKS Final Energy:  -381.46494276333334
    Total Energy =                       -381.4649427633333403
  Basis Set: (6-31G* AUX)
    Blend: CC-PVDZ-JKFIT
  Basis Set: 6-31G*
    Blend: 6-31G*
  Basis Set: (6-31G* AUX)
    Blend: CC-PVDZ-JKFIT
  @DF-RKS Final Energy:  -381.46495422042346
    Total Energy =                       -381.4649542204235217
  Basis Set: 6-31G*
    Blend: 6-31G*
  Basis Set: (6-31G* AUX)
    Blend: CC-PVDZ-JKFIT
  Charge       = 1
  Multiplicity = 1
  Basis Set: 6-31G*
    Blend: 6-31G*
  Basis Set: (6-31G* AUX)
    Blend: CC-PVDZ-JKFIT

    Orbital Energies [Eh]
    ---------------------

    Doubly Occupied:

       1A    -14.573702     2A    -14.561245     3A    -10.496697
       4A    -10.372290     5A    -10.357646     6A    -10.355186
       7A    -10.345398     8A    -10.341287     9A    -10.340141
      10A     -1.182965    11A     -1.090041    12A     -1.014611
      13A     -0.927711    14A     -0.902524    15A     -0.843386
      16A     -0.781237    17A     -0.772298    18A     -0.737475
      19A     -0.729636    20A     -0.693646    21A     -0.668646
      22A     -0.625604    23A     -0.609399    24A     -0.583517
      25A     -0.579640    26A     -0.569403    27A     -0.517790
      28A     -0.506104    29A     -0.497985    30A     -0.477906
      31A     -0.413184    32A     -0.406105

  @DF-RKS Final Energy:  -381.46495545664862

   => Energetics <=

    Nuclear Repulsion Energy =            416.7070595764117797
    One-Electron Energy =               -1328.6510803681962898
    Two-Electron Energy =                 574.8914198739009862
    DFT Exchange-Correlation Energy =     -44.4004974687650886
    Empirical Dispersion Energy =          -0.0118570700000000
    VV10 Nonlocal Energy =                  0.0000000000000000
    Total Energy =                       -381.4649554566486245
    Molecular point group: c1
  Basis Set: 6-31G*
    Blend: 6-31G*
  Basis Set: (6-31G* AUX)
    Blend: CC-PVDZ-JKFIT

  -Total Gradient:
     Atom            X                  Y                   Z
    ------   -----------------  -----------------  -----------------
       1        0.006167569158    -0.003538068304    -0.000068080418
       2       -0.000003423931     0.000009657894     0.000063898787
       3        0.000007376947     0.000013575104    -0.000018798256
       4        0.000001294689     0.000009616073     0.000003713663
       5        0.000000328154    -0.000015080995    -0.000030872180
       6       -0.000027747399     0.000022868839     0.000043876970
       7       -0.010757005358     0.007534270094    -0.002296391296
       8       -0.000023331262     0.000001690796     0.000019121890
       9        0.000001392895    -0.000002641038     0.000005412603
      10       -0.000002877773     0.000006869907    -0.000002328622
      11       -0.000000417877     0.000002356263    -0.000000068961
      12        0.000009656066    -0.000002036887    -0.000001480744
      13        0.008329872726    -0.010441168713     0.009086796955
      14        0.000021411832     0.000033464969    -0.000081879498
      15        0.000002590300    -0.000002300848     0.000014594106
      16        0.000000854794    -0.000019463347    -0.000024168227
      17       -0.003708308294     0.006373534488    -0.006712695404
      18       -0.000018301996    -0.000001923267    -0.000017448767

  **** Optimization is complete! (in 7 steps) ****
    Final optimized geometry and variables:
    Molecular point group: c1

    Geometry (in Angstrom), charge = 1, multiplicity = 1:

    C           -0.017027034718     0.004901346420    -0.169460103553
    C            0.050682578168     1.226493469376     0.532185015240
    C            0.062905051603     1.223945614568     1.921629219938
    C            0.005793728882     0.011365923752     2.618230567209
    C           -0.069400081257    -1.202267324348     1.927066042041
    C           -0.087119004480    -1.212796912988     0.536672853345
    C           -0.013165320272    -0.009259435889    -1.628296926532
    H            0.044744973745     2.171753391625    -0.003861142799
    H            0.103088318714     2.163254564130     2.463408121346
    H            0.017786582755     0.013459412155     3.703923225136
    H           -0.103930262097    -2.139477415701     2.472934368017
    H           -0.107744745204    -2.153823646266    -0.003249592532
    N           -0.587945590491    -1.035965424887    -2.287276732824
    N            0.690496081681     0.893098837028    -2.303285177172
    H            0.658915477914     0.965783979059    -3.313860474107
    H            1.341110862525     1.500334724655    -1.820001992814
    H           -1.530494442797    -1.299375962203    -2.017565768573
    H           -0.439089174671    -1.106123140487    -3.290129501367

  Dipole Moment: [D]
     X:    -0.1451      Y:     0.5411      Z:    -5.6907     Total:     5.7182

  Mulliken Charges: (a.u.)
   Center  Symbol    Alpha    Beta     Spin     Total
       1     C     2.95551  2.95551  0.00000  0.08898
       2     C     3.08421  3.08421  0.00000 -0.16842
       3     C     3.06267  3.06267  0.00000 -0.12534
       4     C     3.05052  3.05052  0.00000 -0.10104
       5     C     3.06264  3.06264  0.00000 -0.12528
       6     C     3.07536  3.07536  0.00000 -0.15072
       7     C     2.74178  2.74178  0.00000  0.51645
       8     H     0.41499  0.41499  0.00000  0.17001
       9     H     0.40528  0.40528  0.00000  0.18943
      10     H     0.40324  0.40324  0.00000  0.19351
      11     H     0.40494  0.40494  0.00000  0.19012
      12     H     0.40802  0.40802  0.00000  0.18396
      13     N     3.85841  3.85841  0.00000 -0.71682
      14     N     3.85444  3.85444  0.00000 -0.70887
      15     H     0.30519  0.30519  0.00000  0.38962
      16     H     0.29930  0.29930  0.00000  0.40139
      17     H     0.30171  0.30171  0.00000  0.39658
      18     H     0.31177  0.31177  0.00000  0.37645

   Total alpha = 32.00000, Total beta = 32.00000, Total charge =  1.00000

*** Psi4 exiting successfully. Buy a developer a beer!
