                               Psi4 1.2.1 release

  ==> Input File <==

--------------------------------------------------------------------------
set_num_threads(4)
set_memory('3000 MB')

set { scf_mem_safety_factor 0.7 }

set { reference rks }
set { basis 6-31G* }

molecule MOL {
    1 1
    noreorient
    nocom
    symmetry c1
    C   -0.000000  -0.000000  -0.177864
    C    0.036678   1.219374   0.524165
    C    0.031765   1.213120   1.915444
    C    0.000000   0.000000   2.610107
    C   -0.031765  -1.213120   1.915444
    C   -0.036678  -1.219375   0.524165
    C   -0.000000   0.000000  -1.644734
    H    0.018170   2.164705  -0.010854
    H    0.042402   2.152895   2.457886
    H    0.000000   0.000000   3.695756
    H   -0.042402  -2.152895   2.457886
    H   -0.018170  -2.164705  -0.010853
    N   -0.712590  -0.905950  -2.308461
    N    0.712590   0.905950  -2.308460
    H    0.673432   1.006470  -3.315997
    H    1.377190   1.485970  -1.813316
    H   -0.872289  -1.818301  -1.901773
    H   -1.169777  -0.707800  -3.190778
}

set optking { frozen_dihedral = (" 1 7 13 17 ") }

set optking { dynamic_level = 1
 geom_maxiter = 250
 print_trajectory_xyz_file = True }

energy, wfn = optimize('B3LYP-D3', return_wfn=True)

import os
os.chdir(os.environ['HTMD_PSI4_WORKDIR'])

oeprop(wfn, 'DIPOLE', 'QUADRUPOLE', 'MULLIKEN_CHARGES')

with open('psi4out.xyz', 'w') as f:
    f.write('18 ' )
    f.write('%.12f\n' % energy)
    f.write(MOL.save_string_xyz())
--------------------------------------------------------------------------

    Molecular point group: c1
  Charge       = 1
  Multiplicity = 1
  Basis Set: 6-31G*
    Blend: 6-31G*
  Basis Set: (6-31G* AUX)
    Blend: CC-PVDZ-JKFIT
  @DF-RKS Final Energy:  -381.45496953470968
    Total Energy =                       -381.4549695347096190
    Molecular point group: c1
  Basis Set: 6-31G*
    Blend: 6-31G*
  Basis Set: (6-31G* AUX)
    Blend: CC-PVDZ-JKFIT
  Basis Set: 6-31G*
    Blend: 6-31G*
  Basis Set: (6-31G* AUX)
    Blend: CC-PVDZ-JKFIT
  @DF-RKS Final Energy:  -381.46055684233204
    Total Energy =                       -381.4605568423320960
  Basis Set: 6-31G*
    Blend: 6-31G*
  Basis Set: (6-31G* AUX)
    Blend: CC-PVDZ-JKFIT
  Basis Set: 6-31G*
    Blend: 6-31G*
  @DF-RKS Final Energy:  -381.46270406069289
    Total Energy =                       -381.4627040606928290
  @DF-RKS Final Energy:  -381.46455530421389
    Total Energy =                       -381.4645553042138886
  @DF-RKS Final Energy:  -381.46486655199431
    Total Energy =                       -381.4648665519942483
  @DF-RKS Final Energy:  -381.46491015044421
    Total Energy =                       -381.4649101504442683
  Basis Set: (6-31G* AUX)
    Blend: CC-PVDZ-JKFIT
  Basis Set: 6-31G*
    Blend: 6-31G*
  Basis Set: (6-31G* AUX)
    Blend: CC-PVDZ-JKFIT
  @DF-RKS Final Energy:  -381.46491446936250
    Total Energy =                       -381.4649144693625544
  Basis Set: 6-31G*
    Blend: 6-31G*
  Basis Set: (6-31G* AUX)
    Blend: CC-PVDZ-JKFIT
  Charge       = 1
  Multiplicity = 1
  Basis Set: 6-31G*
    Blend: 6-31G*
  Basis Set: (6-31G* AUX)
    Blend: CC-PVDZ-JKFIT

    Orbital Energies [Eh]
    ---------------------

    Doubly Occupied:

       1A    -14.572636     2A    -14.566932     3A    -10.500099
       4A    -10.375307     5A    -10.358087     6A    -10.357394
       7A    -10.343069     8A    -10.341286     9A    -10.341027
      10A     -1.186281    11A     -1.094051    12A     -1.015465
      13A     -0.927731    14A     -0.903372    15A     -0.846497
      16A     -0.786072    17A     -0.773398    18A     -0.742652
      19A     -0.733277    20A     -0.685522    21A     -0.669249
      22A     -0.626907    23A     -0.620032    24A     -0.588852
      25A     -0.579524    26A     -0.575528    27A     -0.518637
      28A     -0.506869    29A     -0.499342    30A     -0.475452
      31A     -0.411493    32A     -0.406376

  @DF-RKS Final Energy:  -381.46491473124320

   => Energetics <=

    Nuclear Repulsion Energy =            416.7017086263097099
    One-Electron Energy =               -1328.5310542667639311
    Two-Electron Energy =                 574.7785814299065805
    DFT Exchange-Correlation Energy =     -44.4023118306955169
    Empirical Dispersion Energy =          -0.0118386900000000
    VV10 Nonlocal Energy =                  0.0000000000000000
    Total Energy =                       -381.4649147312431410
    Molecular point group: c1
  Basis Set: 6-31G*
    Blend: 6-31G*
  Basis Set: (6-31G* AUX)
    Blend: CC-PVDZ-JKFIT

  -Total Gradient:
     Atom            X                  Y                   Z
    ------   -----------------  -----------------  -----------------
       1       -0.004785663336     0.004803582232    -0.000016258306
       2        0.000009514419    -0.000011838575     0.000024691858
       3       -0.000001641001     0.000008773413    -0.000007034925
       4       -0.000007176813    -0.000002966198     0.000006433276
       5       -0.000006940513    -0.000002458250    -0.000002584577
       6        0.000013610933    -0.000004832644     0.000011052553
       7        0.010152061581    -0.008956355675    -0.001570614971
       8       -0.000000890223    -0.000001669754    -0.000004743361
       9        0.000001229477    -0.000000768132    -0.000003096265
      10        0.000004955102     0.000001060600    -0.000001037249
      11       -0.000002100239    -0.000001446089    -0.000003362323
      12       -0.000001750312    -0.000004933414     0.000006369791
      13       -0.012888902131     0.008326782846     0.005807956879
      14       -0.000039668833     0.000030994310    -0.000010633594
      15       -0.000000608963     0.000002023541     0.000002074826
      16        0.000011577821    -0.000010388793    -0.000005175305
      17        0.007533208197    -0.004189721233    -0.004256547606
      18        0.000005510345     0.000001051455     0.000002111376

  **** Optimization is complete! (in 8 steps) ****
    Final optimized geometry and variables:
    Molecular point group: c1

    Geometry (in Angstrom), charge = 1, multiplicity = 1:

    C            0.009971533984    -0.011977473643    -0.172927169186
    C            0.056445478674     1.208266338164     0.526224160736
    C            0.050369054809     1.205436062269     1.917933836625
    C            0.015831069526    -0.004187425602     2.617266671983
    C           -0.021123816958    -1.218811871319     1.925831443944
    C           -0.029372386975    -1.227025363590     0.534900439451
    C           -0.007167205048    -0.011649933592    -1.642487538491
    H            0.037624576027     2.154334024952    -0.007219880557
    H            0.063074916175     2.147576450868     2.456233803340
    H            0.016047700804    -0.000681584090     3.702839846699
    H           -0.036017449411    -2.157456171771     2.470022530051
    H           -0.019111505137    -2.178951729521     0.009758815968
    N           -0.835281861426    -0.830577723137    -2.302054928338
    N            0.672861275583     0.915183313099    -2.306875565462
    H            0.611903381784     1.030908033883    -3.312046120013
    H            1.296179799347     1.538782446817    -1.810776254226
    H           -1.085043611037    -1.714300279422    -1.873100330343
    H           -0.788634950721    -0.878529114363    -3.315760762182

  Dipole Moment: [D]
     X:     0.5307      Y:    -0.1470      Z:    -5.7418     Total:     5.7681

  Mulliken Charges: (a.u.)
   Center  Symbol    Alpha    Beta     Spin     Total
       1     C     2.94280  2.94280  0.00000  0.11440
       2     C     3.08236  3.08236  0.00000 -0.16471
       3     C     3.06216  3.06216  0.00000 -0.12431
       4     C     3.05162  3.05162  0.00000 -0.10324
       5     C     3.06234  3.06234  0.00000 -0.12468
       6     C     3.08470  3.08470  0.00000 -0.16940
       7     C     2.74193  2.74193  0.00000  0.51614
       8     H     0.41495  0.41495  0.00000  0.17010
       9     H     0.40522  0.40522  0.00000  0.18955
      10     H     0.40376  0.40376  0.00000  0.19249
      11     H     0.40533  0.40533  0.00000  0.18934
      12     H     0.41837  0.41837  0.00000  0.16325
      13     N     3.84882  3.84882  0.00000 -0.69763
      14     N     3.86020  3.86020  0.00000 -0.72040
      15     H     0.30460  0.30460  0.00000  0.39080
      16     H     0.29871  0.29871  0.00000  0.40259
      17     H     0.30181  0.30181  0.00000  0.39639
      18     H     0.31034  0.31034  0.00000  0.37932

   Total alpha = 32.00000, Total beta = 32.00000, Total charge =  1.00000

*** Psi4 exiting successfully. Buy a developer a beer!
