                               Psi4 1.2.1 release

  ==> Input File <==

--------------------------------------------------------------------------
set_num_threads(4)
set_memory('3000 MB')

set { scf_mem_safety_factor 0.7 }

set { reference rks }
set { basis 6-31G* }

molecule MOL {
    1 1
    noreorient
    nocom
    symmetry c1
    C   -0.000000  -0.000000  -0.177864
    C    0.036678   1.219374   0.524165
    C    0.031765   1.213120   1.915444
    C    0.000000   0.000000   2.610107
    C   -0.031765  -1.213120   1.915444
    C   -0.036678  -1.219375   0.524165
    C   -0.000000   0.000000  -1.644734
    H    0.018170   2.164705  -0.010854
    H    0.042402   2.152895   2.457886
    H    0.000000   0.000000   3.695756
    H   -0.042402  -2.152895   2.457886
    H   -0.018170  -2.164705  -0.010853
    N   -0.712590  -0.905950  -2.308461
    N    0.712590   0.905950  -2.308460
    H    0.673432   1.006470  -3.315997
    H    1.377190   1.485970  -1.813316
    H   -1.633024  -1.164261  -1.977763
    H   -0.405286  -1.314607  -3.183292
}

set optking { frozen_dihedral = (" 1 7 13 17 ") }

set optking { dynamic_level = 1
 geom_maxiter = 250
 print_trajectory_xyz_file = True }

energy, wfn = optimize('B3LYP-D3', return_wfn=True)

import os
os.chdir(os.environ['HTMD_PSI4_WORKDIR'])

oeprop(wfn, 'DIPOLE', 'QUADRUPOLE', 'MULLIKEN_CHARGES')

with open('psi4out.xyz', 'w') as f:
    f.write('18 ' )
    f.write('%.12f\n' % energy)
    f.write(MOL.save_string_xyz())
--------------------------------------------------------------------------

    Molecular point group: c1
  Charge       = 1
  Multiplicity = 1
  Basis Set: 6-31G*
    Blend: 6-31G*
  Basis Set: (6-31G* AUX)
    Blend: CC-PVDZ-JKFIT
  @DF-RKS Final Energy:  -381.46167919917480
    Total Energy =                       -381.4616791991747959
    Molecular point group: c1
  Basis Set: 6-31G*
    Blend: 6-31G*
  Basis Set: (6-31G* AUX)
    Blend: CC-PVDZ-JKFIT
  Basis Set: 6-31G*
    Blend: 6-31G*
  Basis Set: (6-31G* AUX)
    Blend: CC-PVDZ-JKFIT
  @DF-RKS Final Energy:  -381.46562578036094
    Total Energy =                       -381.4656257803609378
  Basis Set: 6-31G*
    Blend: 6-31G*
  Basis Set: (6-31G* AUX)
    Blend: CC-PVDZ-JKFIT
  Basis Set: 6-31G*
    Blend: 6-31G*
  @DF-RKS Final Energy:  -381.46667933973083
    Total Energy =                       -381.4666793397308311
  @DF-RKS Final Energy:  -381.46747922463038
    Total Energy =                       -381.4674792246304378
  @DF-RKS Final Energy:  -381.46750453179135
    Total Energy =                       -381.4675045317913487
  Basis Set: (6-31G* AUX)
    Blend: CC-PVDZ-JKFIT
  Basis Set: 6-31G*
    Blend: 6-31G*
  Basis Set: (6-31G* AUX)
    Blend: CC-PVDZ-JKFIT
  @DF-RKS Final Energy:  -381.46750749741381
    Total Energy =                       -381.4675074974138056
  Basis Set: 6-31G*
    Blend: 6-31G*
  Basis Set: (6-31G* AUX)
    Blend: CC-PVDZ-JKFIT
  Charge       = 1
  Multiplicity = 1
  Basis Set: 6-31G*
    Blend: 6-31G*
  Basis Set: (6-31G* AUX)
    Blend: CC-PVDZ-JKFIT

    Orbital Energies [Eh]
    ---------------------

    Doubly Occupied:

       1A    -14.571780     2A    -14.563836     3A    -10.496767
       4A    -10.372382     5A    -10.357068     6A    -10.355282
       7A    -10.344542     8A    -10.340894     9A    -10.340105
      10A     -1.183317    11A     -1.090900    12A     -1.014401
      13A     -0.927294    14A     -0.902299    15A     -0.843904
      16A     -0.782690    17A     -0.772684    18A     -0.738361
      19A     -0.731084    20A     -0.692614    21A     -0.668766
      22A     -0.625473    23A     -0.611383    24A     -0.584781
      25A     -0.579335    26A     -0.570679    27A     -0.517937
      28A     -0.505787    29A     -0.497891    30A     -0.476655
      31A     -0.412656    32A     -0.405881

  @DF-RKS Final Energy:  -381.46750757468971

   => Energetics <=

    Nuclear Repulsion Energy =            416.8112036181977942
    One-Electron Energy =               -1328.8529355312098232
    Two-Electron Energy =                 574.9887377136423083
    DFT Exchange-Correlation Energy =     -44.4026105753200540
    Empirical Dispersion Energy =          -0.0119028000000000
    VV10 Nonlocal Energy =                  0.0000000000000000
    Total Energy =                       -381.4675075746897051
    Molecular point group: c1
  Basis Set: 6-31G*
    Blend: 6-31G*
  Basis Set: (6-31G* AUX)
    Blend: CC-PVDZ-JKFIT

  -Total Gradient:
     Atom            X                  Y                   Z
    ------   -----------------  -----------------  -----------------
       1        0.004329945774    -0.002656587880    -0.000066767307
       2        0.000021124217     0.000010781009     0.000044116256
       3        0.000001326582     0.000013340872    -0.000033100400
       4        0.000006275445    -0.000019420087    -0.000004589339
       5       -0.000008990745    -0.000001439261    -0.000005219128
       6        0.000002966998    -0.000006869713     0.000017892313
       7       -0.007961201662     0.005734713467    -0.001424852897
       8       -0.000018807905    -0.000002099928    -0.000000242938
       9       -0.000004032705    -0.000004296698    -0.000001295335
      10       -0.000000544107    -0.000000798164    -0.000001548229
      11        0.000000587512     0.000002627720     0.000002908352
      12       -0.000010546033     0.000009216176    -0.000005179427
      13        0.007089699084    -0.008059291648     0.005759853193
      14        0.000021874355     0.000081725982    -0.000064977365
      15       -0.000023550527    -0.000001425742     0.000010574361
      16        0.000010720265    -0.000016743217    -0.000016172174
      17       -0.003488981537     0.004884773117    -0.004139281087
      18        0.000023501377     0.000018187604    -0.000087594114

  **** Optimization is complete! (in 7 steps) ****
    Final optimized geometry and variables:
    Molecular point group: c1

    Geometry (in Angstrom), charge = 1, multiplicity = 1:

    C           -0.010670259407     0.003299338507    -0.172649377072
    C            0.045760683539     1.224498036269     0.528739200987
    C            0.050934000562     1.221270101914     1.918789368963
    C            0.001480680504     0.008576408301     2.614946442363
    C           -0.058687484867    -1.205281939359     1.922913295916
    C           -0.070490645462    -1.215028034489     0.532218132882
    C           -0.005390750422    -0.007001876865    -1.633831842112
    H            0.036264608936     2.169503339574    -0.007526944820
    H            0.080774874335     2.160938686045     2.460628727802
    H            0.008467335178     0.010287571229     3.700654423699
    H           -0.085852454681    -2.143203711839     2.467992067521
    H           -0.078034682022    -2.157372365633    -0.006375107030
    N           -0.611332787375    -1.005508816498    -2.294589288273
    N            0.698866348613     0.898298170769    -2.305396024025
    H            0.667064904614     0.977228530062    -3.315366340553
    H            1.356662065997     1.494591694348    -1.818971591587
    H           -1.496919444458    -1.348459823317    -1.939745338430
    H           -0.516584993583    -1.073064309017    -3.303170806229

  Dipole Moment: [D]
     X:    -0.1555      Y:     0.3948      Z:    -5.7081     Total:     5.7238

  Mulliken Charges: (a.u.)
   Center  Symbol    Alpha    Beta     Spin     Total
       1     C     2.95716  2.95716  0.00000  0.08568
       2     C     3.08377  3.08377  0.00000 -0.16753
       3     C     3.06264  3.06264  0.00000 -0.12527
       4     C     3.05084  3.05084  0.00000 -0.10167
       5     C     3.06263  3.06263  0.00000 -0.12525
       6     C     3.07722  3.07722  0.00000 -0.15445
       7     C     2.73455  2.73455  0.00000  0.53090
       8     H     0.41475  0.41475  0.00000  0.17049
       9     H     0.40538  0.40538  0.00000  0.18924
      10     H     0.40348  0.40348  0.00000  0.19304
      11     H     0.40512  0.40512  0.00000  0.18976
      12     H     0.40980  0.40980  0.00000  0.18040
      13     N     3.85979  3.85979  0.00000 -0.71957
      14     N     3.85708  3.85708  0.00000 -0.71417
      15     H     0.30541  0.30541  0.00000  0.38917
      16     H     0.29941  0.29941  0.00000  0.40119
      17     H     0.30131  0.30131  0.00000  0.39738
      18     H     0.30967  0.30967  0.00000  0.38065

   Total alpha = 32.00000, Total beta = 32.00000, Total charge =  1.00000

*** Psi4 exiting successfully. Buy a developer a beer!
