                               Psi4 1.2.1 release

  ==> Input File <==

--------------------------------------------------------------------------
set_num_threads(1)
set_memory('5348 MB')

set { scf_mem_safety_factor 0.7 }

set { reference rks }
set { basis cc-pVDZ }

molecule MOL {
    0 1
    noreorient
    nocom
    symmetry c1
    O    1.141000   0.017000   0.083000
    C    2.558000   0.086000  -0.005000
    C    3.192000  -0.789000   1.067000
    O    2.786440  -2.141677   0.896253
    H    0.789000   0.590000  -0.620000
    H    2.874000   1.128000   0.115000
    H    2.871000  -0.243000  -1.001000
    H    2.894645  -0.448339   2.063728
    H    4.284873  -0.733392   1.008574
    H    3.217714  -2.652726   1.603159
}

set optking { frozen_dihedral = (" 1 2 3 4 ") }

energy, wfn = energy('B3LYP-D3', return_wfn=True)

import os
os.chdir(os.environ['HTMD_PSI4_WORKDIR'])

oeprop(wfn, 'DIPOLE', 'QUADRUPOLE', 'MULLIKEN_CHARGES')

with open('psi4out.xyz', 'w') as f:
    f.write('10 ' )
    f.write('%.12f\n' % energy)
    f.write(MOL.save_string_xyz())
--------------------------------------------------------------------------

    Molecular point group: c1

    Geometry (in Angstrom), charge = 0, multiplicity = 1:

       Center              X                  Y                   Z               Mass
    ------------   -----------------  -----------------  -----------------  -----------------
         O            1.141000000000     0.017000000000     0.083000000000    15.994914619560
         C            2.558000000000     0.086000000000    -0.005000000000    12.000000000000
         C            3.192000000000    -0.789000000000     1.067000000000    12.000000000000
         O            2.786440000000    -2.141677000000     0.896253000000    15.994914619560
         H            0.789000000000     0.590000000000    -0.620000000000     1.007825032070
         H            2.874000000000     1.128000000000     0.115000000000     1.007825032070
         H            2.871000000000    -0.243000000000    -1.001000000000     1.007825032070
         H            2.894645000000    -0.448339000000     2.063728000000     1.007825032070
         H            4.284873000000    -0.733392000000     1.008574000000     1.007825032070
         H            3.217714000000    -2.652726000000     1.603159000000     1.007825032070

  Charge       = 0
  Multiplicity = 1
  Basis Set: CC-PVDZ
    Blend: CC-PVDZ
  Basis Set: (CC-PVDZ AUX)
    Blend: CC-PVDZ-JKFIT

    Orbital Energies [Eh]
    ---------------------

    Doubly Occupied:

       1A    -19.124749     2A    -19.124711     3A    -10.227412
       4A    -10.227218     5A     -1.016451     6A     -0.998879
       7A     -0.733840     8A     -0.602016     9A     -0.520146
      10A     -0.500991    11A     -0.438741    12A     -0.416271
      13A     -0.403738    14A     -0.340265    15A     -0.318358
      16A     -0.261226    17A     -0.257272

  @DF-RKS Final Energy:  -230.25570428818028

   => Energetics <=

    Nuclear Repulsion Energy =            131.8286416670424614
    One-Electron Energy =                -575.5135791612640332
    Two-Electron Energy =                 237.9696683419414285
    DFT Exchange-Correlation Energy =     -24.5361010059001430
    Empirical Dispersion Energy =          -0.0043341300000000
    VV10 Nonlocal Energy =                  0.0000000000000000
    Total Energy =                       -230.2557042881802829

  Dipole Moment: [D]
     X:     1.5631      Y:     1.2219      Z:     0.0708     Total:     1.9853

  Mulliken Charges: (a.u.)
   Center  Symbol    Alpha    Beta     Spin     Total
       1     O     4.13464  4.13464  0.00000 -0.26928
       2     C     2.93250  2.93250  0.00000  0.13499
       3     C     2.93267  2.93267  0.00000  0.13466
       4     O     4.13486  4.13486  0.00000 -0.26971
       5     H     0.43067  0.43067  0.00000  0.13867
       6     H     0.50364  0.50364  0.00000 -0.00728
       7     H     0.49849  0.49849  0.00000  0.00302
       8     H     0.49838  0.49838  0.00000  0.00323
       9     H     0.50353  0.50353  0.00000 -0.00707
      10     H     0.43061  0.43061  0.00000  0.13878

   Total alpha = 17.00000, Total beta = 17.00000, Total charge = -0.00000

*** Psi4 exiting successfully. Buy a developer a beer!
