                               Psi4 1.2.1 release

  ==> Input File <==

--------------------------------------------------------------------------
set_num_threads(4)
set_memory('3000 MB')

set { scf_mem_safety_factor 0.7 }

set { reference rks }
set { basis 6-31G* }

molecule MOL {
    1 1
    noreorient
    nocom
    symmetry c1
    C   -0.000000  -0.000000  -0.177864
    C    0.036678   1.219374   0.524165
    C    0.031765   1.213120   1.915444
    C    0.000000   0.000000   2.610107
    C   -0.031765  -1.213120   1.915444
    C   -0.036678  -1.219375   0.524165
    C   -0.000000   0.000000  -1.644734
    H    0.018170   2.164705  -0.010854
    H    0.042402   2.152895   2.457886
    H    0.000000   0.000000   3.695756
    H   -0.042402  -2.152895   2.457886
    H   -0.018170  -2.164705  -0.010853
    N   -0.712590  -0.905950  -2.308461
    N    0.712590   0.905950  -2.308460
    H    0.673432   1.006470  -3.315997
    H    1.377190   1.485970  -1.813316
    H   -1.714928  -0.951696  -2.179969
    H   -0.307544  -1.525319  -3.000622
}

set optking { frozen_dihedral = (" 1 7 13 17 ") }

set optking { dynamic_level = 1
 geom_maxiter = 250
 print_trajectory_xyz_file = True }

energy, wfn = optimize('B3LYP-D3', return_wfn=True)

import os
os.chdir(os.environ['HTMD_PSI4_WORKDIR'])

oeprop(wfn, 'DIPOLE', 'QUADRUPOLE', 'MULLIKEN_CHARGES')

with open('psi4out.xyz', 'w') as f:
    f.write('18 ' )
    f.write('%.12f\n' % energy)
    f.write(MOL.save_string_xyz())
--------------------------------------------------------------------------

    Molecular point group: c1
  Charge       = 1
  Multiplicity = 1
  Basis Set: 6-31G*
    Blend: 6-31G*
  Basis Set: (6-31G* AUX)
    Blend: CC-PVDZ-JKFIT
  @DF-RKS Final Energy:  -381.44732977118611
    Total Energy =                       -381.4473297711861619
    Molecular point group: c1
  Basis Set: 6-31G*
    Blend: 6-31G*
  Basis Set: (6-31G* AUX)
    Blend: CC-PVDZ-JKFIT
  Basis Set: 6-31G*
    Blend: 6-31G*
  Basis Set: (6-31G* AUX)
    Blend: CC-PVDZ-JKFIT
  @DF-RKS Final Energy:  -381.45506751639783
    Total Energy =                       -381.4550675163978894
  Basis Set: 6-31G*
    Blend: 6-31G*
  Basis Set: (6-31G* AUX)
    Blend: CC-PVDZ-JKFIT
  Basis Set: 6-31G*
    Blend: 6-31G*
  @DF-RKS Final Energy:  -381.45774995876968
    Total Energy =                       -381.4577499587696821
  @DF-RKS Final Energy:  -381.46121842598342
    Total Energy =                       -381.4612184259834748
  @DF-RKS Final Energy:  -381.46159515927042
    Total Energy =                       -381.4615951592703595
  @DF-RKS Final Energy:  -381.46161249577261
    Total Energy =                       -381.4616124957726697
  @DF-RKS Final Energy:  -381.46152369718953
    Total Energy =                       -381.4615236971895342
  @DF-RKS Final Energy:  -381.46161249577307
    Total Energy =                       -381.4616124957730676
  Basis Set: (6-31G* AUX)
    Blend: CC-PVDZ-JKFIT
  Basis Set: 6-31G*
    Blend: 6-31G*
  Basis Set: (6-31G* AUX)
    Blend: CC-PVDZ-JKFIT
  @DF-RKS Final Energy:  -381.46161386131075
    Total Energy =                       -381.4616138613106955
  Basis Set: 6-31G*
    Blend: 6-31G*
  Basis Set: (6-31G* AUX)
    Blend: CC-PVDZ-JKFIT
  Charge       = 1
  Multiplicity = 1
  Basis Set: 6-31G*
    Blend: 6-31G*
  Basis Set: (6-31G* AUX)
    Blend: CC-PVDZ-JKFIT

    Orbital Energies [Eh]
    ---------------------

    Doubly Occupied:

       1A    -14.575708     2A    -14.557877     3A    -10.496609
       4A    -10.372317     5A    -10.358398     6A    -10.355263
       7A    -10.346486     8A    -10.341868     9A    -10.340311
      10A     -1.182387    11A     -1.088691    12A     -1.014954
      13A     -0.928235    14A     -0.902912    15A     -0.842913
      16A     -0.779683    17A     -0.771982    18A     -0.736891
      19A     -0.727607    20A     -0.694508    21A     -0.668481
      22A     -0.625892    23A     -0.607653    24A     -0.582261
      25A     -0.580070    26A     -0.567640    27A     -0.517613
      28A     -0.506589    29A     -0.498234    30A     -0.478581
      31A     -0.413854    32A     -0.406482

  @DF-RKS Final Energy:  -381.46161488732611

   => Energetics <=

    Nuclear Repulsion Energy =            416.5788898068175286
    One-Electron Energy =               -1328.4006704380713018
    Two-Electron Energy =                 574.7700561193041722
    DFT Exchange-Correlation Energy =     -44.3980962753766022
    Empirical Dispersion Energy =          -0.0117941000000000
    VV10 Nonlocal Energy =                  0.0000000000000000
    Total Energy =                       -381.4616148873261636
    Molecular point group: c1
  Basis Set: 6-31G*
    Blend: 6-31G*
  Basis Set: (6-31G* AUX)
    Blend: CC-PVDZ-JKFIT

  -Total Gradient:
     Atom            X                  Y                   Z
    ------   -----------------  -----------------  -----------------
       1        0.007740022886    -0.004068378912    -0.000005150403
       2        0.000009014506     0.000007866549     0.000013238630
       3       -0.000010619666     0.000003566520    -0.000012430939
       4        0.000000717734     0.000001877416     0.000009217535
       5        0.000009383338    -0.000006110924    -0.000018747491
       6        0.000005420539     0.000003661886     0.000023949065
       7       -0.012685290369     0.008618938326    -0.003199209143
       8        0.000006466429    -0.000001228427    -0.000015405870
       9        0.000001972544    -0.000000266492    -0.000000032548
      10       -0.000000182000     0.000002082412    -0.000000221948
      11       -0.000006176687    -0.000000577491    -0.000001914982
      12       -0.000000912889    -0.000007358740    -0.000004401120
      13        0.008092348708    -0.012176520118     0.012677421148
      14       -0.000098273412     0.000118142705    -0.000027088916
      15       -0.000007046435     0.000005898066     0.000001324496
      16       -0.000008650626     0.000012453826     0.000003197589
      17       -0.003026814309     0.007487016394    -0.009479165439
      18       -0.000014017353    -0.000008876501     0.000020932012

  **** Optimization is complete! (in 3 steps) ****
    Final optimized geometry and variables:
    Molecular point group: c1

    Geometry (in Angstrom), charge = 1, multiplicity = 1:

    C           -0.023892420240     0.005961237541    -0.165562432922
    C            0.058803743287     1.227862044258     0.535983393778
    C            0.078382832314     1.226050784956     1.924691403842
    C            0.011022041786     0.013843399756     2.622129778398
    C           -0.082454417469    -1.199344708333     1.932336711025
    C           -0.106623073292    -1.210764333032     0.542267044786
    C           -0.021677126090    -0.012611445621    -1.621734662136
    H            0.058752196131     2.173235675067    -0.000085192168
    H            0.131270852652     2.164890116997     2.466162895979
    H            0.028453216928     0.016482718942     3.707782240737
    H           -0.126610691259    -2.135511094581     2.479282021830
    H           -0.143365283729    -2.150282796509     0.001203205919
    N           -0.569574503099    -1.064698737285    -2.279486835492
    N            0.678189676911     0.889242859500    -2.300221141569
    H            0.644058253816     0.956813255470    -3.311225087263
    H            1.319457342889     1.510002237455    -1.820746753827
    H           -1.554958591273    -1.250868416778    -2.113177202162
    H           -0.351084050261    -1.144878797804    -3.269876388755

  Dipole Moment: [D]
     X:    -0.1040      Y:     0.6914      Z:    -5.6624     Total:     5.7054

  Mulliken Charges: (a.u.)
   Center  Symbol    Alpha    Beta     Spin     Total
       1     C     2.95319  2.95319  0.00000  0.09362
       2     C     3.08449  3.08449  0.00000 -0.16899
       3     C     3.06273  3.06273  0.00000 -0.12545
       4     C     3.05015  3.05015  0.00000 -0.10030
       5     C     3.06264  3.06264  0.00000 -0.12528
       6     C     3.07348  3.07348  0.00000 -0.14697
       7     C     2.74927  2.74927  0.00000  0.50147
       8     H     0.41527  0.41527  0.00000  0.16947
       9     H     0.40514  0.40514  0.00000  0.18972
      10     H     0.40294  0.40294  0.00000  0.19412
      11     H     0.40471  0.40471  0.00000  0.19058
      12     H     0.40613  0.40613  0.00000  0.18775
      13     N     3.85785  3.85785  0.00000 -0.71571
      14     N     3.85181  3.85181  0.00000 -0.70361
      15     H     0.30496  0.30496  0.00000  0.39009
      16     H     0.29929  0.29929  0.00000  0.40142
      17     H     0.30202  0.30202  0.00000  0.39597
      18     H     0.31395  0.31395  0.00000  0.37210

   Total alpha = 32.00000, Total beta = 32.00000, Total charge =  1.00000

*** Psi4 exiting successfully. Buy a developer a beer!
