                               Psi4 1.2.1 release

  ==> Input File <==

--------------------------------------------------------------------------
set_num_threads(1)
set_memory('5348 MB')

set { scf_mem_safety_factor 0.7 }

set { reference rks }
set { basis cc-pVDZ }

molecule MOL {
    0 1
    noreorient
    nocom
    symmetry c1
    O    1.141000   0.017000   0.083000
    C    2.558000   0.086000  -0.005000
    C    3.192000  -0.789000   1.067000
    O    4.004448   0.002120   1.925735
    H    0.789000   0.590000  -0.620000
    H    2.874000   1.128000   0.115000
    H    2.871000  -0.243000  -1.001000
    H    3.807832  -1.569201   0.608770
    H    2.417441  -1.283922   1.663647
    H    4.382324  -0.603561   2.586981
}

set optking { frozen_dihedral = (" 1 2 3 4 ") }

energy, wfn = energy('B3LYP-D3', return_wfn=True)

import os
os.chdir(os.environ['HTMD_PSI4_WORKDIR'])

oeprop(wfn, 'DIPOLE', 'QUADRUPOLE', 'MULLIKEN_CHARGES')

with open('psi4out.xyz', 'w') as f:
    f.write('10 ' )
    f.write('%.12f\n' % energy)
    f.write(MOL.save_string_xyz())
--------------------------------------------------------------------------

    Molecular point group: c1

    Geometry (in Angstrom), charge = 0, multiplicity = 1:

       Center              X                  Y                   Z               Mass
    ------------   -----------------  -----------------  -----------------  -----------------
         O            1.141000000000     0.017000000000     0.083000000000    15.994914619560
         C            2.558000000000     0.086000000000    -0.005000000000    12.000000000000
         C            3.192000000000    -0.789000000000     1.067000000000    12.000000000000
         O            4.004448000000     0.002120000000     1.925735000000    15.994914619560
         H            0.789000000000     0.590000000000    -0.620000000000     1.007825032070
         H            2.874000000000     1.128000000000     0.115000000000     1.007825032070
         H            2.871000000000    -0.243000000000    -1.001000000000     1.007825032070
         H            3.807832000000    -1.569201000000     0.608770000000     1.007825032070
         H            2.417441000000    -1.283922000000     1.663647000000     1.007825032070
         H            4.382324000000    -0.603561000000     2.586981000000     1.007825032070

  Charge       = 0
  Multiplicity = 1
  Basis Set: CC-PVDZ
    Blend: CC-PVDZ
  Basis Set: (CC-PVDZ AUX)
    Blend: CC-PVDZ-JKFIT

    Orbital Energies [Eh]
    ---------------------

    Doubly Occupied:

       1A    -19.128440     2A    -19.128406     3A    -10.225307
       4A    -10.225120     5A     -1.017292     6A     -1.005061
       7A     -0.732724     8A     -0.603190     9A     -0.520717
      10A     -0.504843    11A     -0.438261    12A     -0.410753
      13A     -0.407573    14A     -0.346516    15A     -0.320077
      16A     -0.266186    17A     -0.255953

  @DF-RKS Final Energy:  -230.25321248485244

   => Energetics <=

    Nuclear Repulsion Energy =            130.1039137459225969
    One-Electron Energy =                -572.0070321818743651
    Two-Electron Energy =                 236.1959311840964233
    DFT Exchange-Correlation Energy =     -24.5417833229970732
    Empirical Dispersion Energy =          -0.0042419100000000
    VV10 Nonlocal Energy =                  0.0000000000000000
    Total Energy =                       -230.2532124848524404

  Dipole Moment: [D]
     X:     0.5189      Y:    -0.6241      Z:    -0.8184     Total:     1.1526

  Mulliken Charges: (a.u.)
   Center  Symbol    Alpha    Beta     Spin     Total
       1     O     4.14012  4.14012  0.00000 -0.28024
       2     C     2.93295  2.93295  0.00000  0.13409
       3     C     2.93314  2.93314  0.00000  0.13372
       4     O     4.14036  4.14036  0.00000 -0.28072
       5     H     0.43043  0.43043  0.00000  0.13914
       6     H     0.49400  0.49400  0.00000  0.01201
       7     H     0.50243  0.50243  0.00000 -0.00487
       8     H     0.50229  0.50229  0.00000 -0.00458
       9     H     0.49390  0.49390  0.00000  0.01221
      10     H     0.43038  0.43038  0.00000  0.13924

   Total alpha = 17.00000, Total beta = 17.00000, Total charge =  0.00000

*** Psi4 exiting successfully. Buy a developer a beer!
