                               Psi4 1.2.1 release

  ==> Input File <==

--------------------------------------------------------------------------
set_num_threads(4)
set_memory('3000 MB')

set { scf_mem_safety_factor 0.7 }

set { reference rks }
set { basis 6-31G* }

molecule MOL {
    1 1
    noreorient
    nocom
    symmetry c1
    C   -0.000000  -0.000000  -0.177864
    C    0.036678   1.219374   0.524165
    C    0.031765   1.213120   1.915444
    C    0.000000   0.000000   2.610107
    C   -0.031765  -1.213120   1.915444
    C   -0.036678  -1.219375   0.524165
    C   -0.000000   0.000000  -1.644734
    H    0.018170   2.164705  -0.010854
    H    0.042402   2.152895   2.457886
    H    0.000000   0.000000   3.695756
    H   -0.042402  -2.152895   2.457886
    H   -0.018170  -2.164705  -0.010853
    N    1.128577  -0.234187  -2.308461
    N   -1.128577   0.234187  -2.308461
    H   -1.201113   0.154337  -3.315997
    H   -1.943991   0.570662  -1.813317
    H    1.943991  -0.570662  -1.813317
    H    1.201113  -0.154337  -3.315997
}

set optking { frozen_dihedral = (" 2 1 7 13 ") }

set optking { dynamic_level = 1
 geom_maxiter = 250
 print_trajectory_xyz_file = True }

energy, wfn = optimize('B3LYP-D3', return_wfn=True)

import os
os.chdir(os.environ['HTMD_PSI4_WORKDIR'])

oeprop(wfn, 'DIPOLE', 'QUADRUPOLE', 'MULLIKEN_CHARGES')

with open('psi4out.xyz', 'w') as f:
    f.write('18 ' )
    f.write('%.12f\n' % energy)
    f.write(MOL.save_string_xyz())
--------------------------------------------------------------------------

    Molecular point group: c1
  Charge       = 1
  Multiplicity = 1
  Basis Set: 6-31G*
    Blend: 6-31G*
  Basis Set: (6-31G* AUX)
    Blend: CC-PVDZ-JKFIT
  @DF-RKS Final Energy:  -381.46184122623902
    Total Energy =                       -381.4618412262390166
    Molecular point group: c1
  Basis Set: 6-31G*
    Blend: 6-31G*
  Basis Set: (6-31G* AUX)
    Blend: CC-PVDZ-JKFIT
  Basis Set: 6-31G*
    Blend: 6-31G*
  Basis Set: (6-31G* AUX)
    Blend: CC-PVDZ-JKFIT
  @DF-RKS Final Energy:  -381.46407534780366
    Total Energy =                       -381.4640753478037141
  Basis Set: 6-31G*
    Blend: 6-31G*
  Basis Set: (6-31G* AUX)
    Blend: CC-PVDZ-JKFIT
  Basis Set: 6-31G*
    Blend: 6-31G*
  @DF-RKS Final Energy:  -381.46461134691862
    Total Energy =                       -381.4646113469186162
  @DF-RKS Final Energy:  -381.46466160150453
    Total Energy =                       -381.4646616015045311
  Basis Set: (6-31G* AUX)
    Blend: CC-PVDZ-JKFIT
  Basis Set: 6-31G*
    Blend: 6-31G*
  Basis Set: (6-31G* AUX)
    Blend: CC-PVDZ-JKFIT
  @DF-RKS Final Energy:  -381.46466720122328
    Total Energy =                       -381.4646672012232784
  Basis Set: 6-31G*
    Blend: 6-31G*
  Basis Set: (6-31G* AUX)
    Blend: CC-PVDZ-JKFIT
  Charge       = 1
  Multiplicity = 1
  Basis Set: 6-31G*
    Blend: 6-31G*
  Basis Set: (6-31G* AUX)
    Blend: CC-PVDZ-JKFIT

    Orbital Energies [Eh]
    ---------------------

    Doubly Occupied:

       1A    -14.576115     2A    -14.576036     3A    -10.502864
       4A    -10.368095     5A    -10.349107     6A    -10.348775
       7A    -10.333818     8A    -10.333592     9A    -10.332916
      10A     -1.190448    11A     -1.099561    12A     -1.008836
      13A     -0.922015    14A     -0.895109    15A     -0.845537
      16A     -0.788083    17A     -0.765773    18A     -0.754608
      19A     -0.728124    20A     -0.691733    21A     -0.666899
      22A     -0.623523    23A     -0.615917    24A     -0.577739
      25A     -0.573112    26A     -0.567305    27A     -0.515501
      28A     -0.496643    29A     -0.491611    30A     -0.479891
      31A     -0.404648    32A     -0.398319

  @DF-RKS Final Energy:  -381.46466768959249

   => Energetics <=

    Nuclear Repulsion Energy =            416.2633395769937010
    One-Electron Energy =               -1327.8653773407095287
    Two-Electron Energy =                 574.5531209040943850
    DFT Exchange-Correlation Energy =     -44.4040654799710595
    Empirical Dispersion Energy =          -0.0116853500000000
    VV10 Nonlocal Energy =                  0.0000000000000000
    Total Energy =                       -381.4646676895924315
    Molecular point group: c1
  Basis Set: 6-31G*
    Blend: 6-31G*
  Basis Set: (6-31G* AUX)
    Blend: CC-PVDZ-JKFIT

  -Total Gradient:
     Atom            X                  Y                   Z
    ------   -----------------  -----------------  -----------------
       1       -0.004364988546     0.001677706791    -0.000057012274
       2        0.003188979788    -0.000166921836     0.000035943208
       3        0.000026555908    -0.000001236784     0.000003793181
       4       -0.000002257958     0.000003498555    -0.000007433015
       5       -0.000022043715    -0.000009120977    -0.000002257015
       6        0.000004231390    -0.000013084986    -0.000013329019
       7        0.000448932023    -0.004734619347    -0.000001473191
       8       -0.000005948753     0.000000636970     0.000002406523
       9       -0.000005668201    -0.000001165826    -0.000000744890
      10       -0.000000056699     0.000001024404    -0.000000177436
      11        0.000008302980     0.000001348796     0.000003177513
      12        0.000009644920     0.000001386755     0.000002704657
      13        0.000706343586     0.003269269059     0.000029490048
      14       -0.000000199970    -0.000031491875     0.000021180739
      15       -0.000002947976     0.000003892959    -0.000005293202
      16       -0.000008783080    -0.000005574728    -0.000011261727
      17        0.000015735596    -0.000004590329    -0.000005396368
      18        0.000007043743     0.000002288063    -0.000006231543

  **** Optimization is complete! (in 6 steps) ****
    Final optimized geometry and variables:
    Molecular point group: c1

    Geometry (in Angstrom), charge = 1, multiplicity = 1:

    C           -0.048230069872    -0.011267407371    -0.173959910890
    C           -0.005118802541     1.213130673400     0.508697403109
    C            0.027848063842     1.210130350719     1.902386259630
    C            0.020510249266     0.000259773889     2.601568103418
    C           -0.010358289834    -1.215717727282     1.913605000957
    C           -0.031260379364    -1.229947701090     0.519777758242
    C           -0.019461799481    -0.012728036436    -1.656712817528
    H            0.005512674179     2.150578138769    -0.040131284272
    H            0.062841349259     2.152239260908     2.440061984820
    H            0.042997715802     0.005001741116     3.686936312434
    H           -0.014219920547    -2.153297623809     2.460222373290
    H           -0.050773983396    -2.172282555738    -0.020438730066
    N            1.122243445226    -0.266574819527    -2.277043892277
    N           -1.122169199597     0.288951481014    -2.324263446782
    H           -1.164988861210     0.357913195302    -3.335881269437
    H           -1.979824486679     0.451583444121    -1.811099365443
    H            1.950391902825    -0.455948714655    -1.725967605668
    H            1.214060392122    -0.312024473329    -3.286758873539

  Dipole Moment: [D]
     X:     0.0377      Y:    -0.0032      Z:    -6.4845     Total:     6.4846

  Mulliken Charges: (a.u.)
   Center  Symbol    Alpha    Beta     Spin     Total
       1     C     2.99246  2.99246  0.00000  0.01509
       2     C     3.06989  3.06989  0.00000 -0.13979
       3     C     3.06267  3.06267  0.00000 -0.12534
       4     C     3.05358  3.05358  0.00000 -0.10717
       5     C     3.06290  3.06290  0.00000 -0.12580
       6     C     3.07237  3.07237  0.00000 -0.14474
       7     C     2.74671  2.74671  0.00000  0.50657
       8     H     0.41353  0.41353  0.00000  0.17295
       9     H     0.40729  0.40729  0.00000  0.18543
      10     H     0.40667  0.40667  0.00000  0.18665
      11     H     0.40731  0.40731  0.00000  0.18538
      12     H     0.41368  0.41368  0.00000  0.17264
      13     N     3.84451  3.84451  0.00000 -0.68902
      14     N     3.84538  3.84538  0.00000 -0.69077
      15     H     0.30506  0.30506  0.00000  0.38988
      16     H     0.29542  0.29542  0.00000  0.40917
      17     H     0.29553  0.29553  0.00000  0.40893
      18     H     0.30503  0.30503  0.00000  0.38993

   Total alpha = 32.00000, Total beta = 32.00000, Total charge =  1.00000

*** Psi4 exiting successfully. Buy a developer a beer!
