                               Psi4 1.2.1 release

  ==> Input File <==

--------------------------------------------------------------------------
set_num_threads(1)
set_memory('5348 MB')

set { scf_mem_safety_factor 0.7 }

set { reference rks }
set { basis cc-pVDZ }

molecule MOL {
    0 1
    noreorient
    nocom
    symmetry c1
    O    1.141000   0.017000   0.083000
    C    2.558000   0.086000  -0.005000
    C    3.192000  -0.789000   1.067000
    O    4.610000  -0.719000   0.979000
    H    0.789000   0.590000  -0.620000
    H    2.874000   1.128000   0.115000
    H    2.871000  -0.243000  -1.001000
    H    2.876000  -1.830000   0.947000
    H    2.879000  -0.459000   2.064000
    H    4.911658  -1.585323   0.654387
}

set optking { frozen_dihedral = (" 2 3 4 10 ") }

energy, wfn = energy('B3LYP-D3', return_wfn=True)

import os
os.chdir(os.environ['HTMD_PSI4_WORKDIR'])

oeprop(wfn, 'DIPOLE', 'QUADRUPOLE', 'MULLIKEN_CHARGES')

with open('psi4out.xyz', 'w') as f:
    f.write('10 ' )
    f.write('%.12f\n' % energy)
    f.write(MOL.save_string_xyz())
--------------------------------------------------------------------------

    Molecular point group: c1

    Geometry (in Angstrom), charge = 0, multiplicity = 1:

       Center              X                  Y                   Z               Mass
    ------------   -----------------  -----------------  -----------------  -----------------
         O            1.141000000000     0.017000000000     0.083000000000    15.994914619560
         C            2.558000000000     0.086000000000    -0.005000000000    12.000000000000
         C            3.192000000000    -0.789000000000     1.067000000000    12.000000000000
         O            4.610000000000    -0.719000000000     0.979000000000    15.994914619560
         H            0.789000000000     0.590000000000    -0.620000000000     1.007825032070
         H            2.874000000000     1.128000000000     0.115000000000     1.007825032070
         H            2.871000000000    -0.243000000000    -1.001000000000     1.007825032070
         H            2.876000000000    -1.830000000000     0.947000000000     1.007825032070
         H            2.879000000000    -0.459000000000     2.064000000000     1.007825032070
         H            4.911658000000    -1.585323000000     0.654387000000     1.007825032070

  Charge       = 0
  Multiplicity = 1
  Basis Set: CC-PVDZ
    Blend: CC-PVDZ
  Basis Set: (CC-PVDZ AUX)
    Blend: CC-PVDZ-JKFIT

    Orbital Energies [Eh]
    ---------------------

    Doubly Occupied:

       1A    -19.134014     2A    -19.130555     3A    -10.226920
       4A    -10.223677     5A     -1.019833     6A     -1.008894
       7A     -0.730823     8A     -0.607961     9A     -0.524896
      10A     -0.492580    11A     -0.454582    12A     -0.423254
      13A     -0.396316    14A     -0.338680    15A     -0.324738
      16A     -0.268960    17A     -0.263489

  @DF-RKS Final Energy:  -230.25725354733552

   => Energetics <=

    Nuclear Repulsion Energy =            129.6105073406476151
    One-Electron Energy =                -570.9621923597484283
    Two-Electron Energy =                 235.6379413278055210
    DFT Exchange-Correlation Energy =     -24.5390281660402110
    Empirical Dispersion Energy =          -0.0044816900000000
    VV10 Nonlocal Energy =                  0.0000000000000000
    Total Energy =                       -230.2572535473355231

  Dipole Moment: [D]
     X:    -0.0465      Y:    -0.5062      Z:    -1.4649     Total:     1.5506

  Mulliken Charges: (a.u.)
   Center  Symbol    Alpha    Beta     Spin     Total
       1     O     4.14103  4.14103  0.00000 -0.28205
       2     C     2.93576  2.93576  0.00000  0.12848
       3     C     2.93691  2.93691  0.00000  0.12619
       4     O     4.13984  4.13984  0.00000 -0.27968
       5     H     0.42808  0.42808  0.00000  0.14384
       6     H     0.49789  0.49789  0.00000  0.00423
       7     H     0.50539  0.50539  0.00000 -0.01078
       8     H     0.49724  0.49724  0.00000  0.00551
       9     H     0.49002  0.49002  0.00000  0.01996
      10     H     0.42785  0.42785  0.00000  0.14431

   Total alpha = 17.00000, Total beta = 17.00000, Total charge = -0.00000

*** Psi4 exiting successfully. Buy a developer a beer!
