                               Psi4 1.2.1 release

  ==> Input File <==

--------------------------------------------------------------------------
set_num_threads(1)
set_memory('5348 MB')

set { scf_mem_safety_factor 0.7 }

set { reference rks }
set { basis cc-pVDZ }

molecule MOL {
    0 1
    noreorient
    nocom
    symmetry c1
    O    1.050400   0.042900  -0.048100
    C    2.474100   0.047400  -0.029000
    C    3.002600  -1.068900  -0.932000
    N    4.462700  -1.072400  -1.006800
    H    0.781192  -0.680498  -0.639905
    H    2.809900  -0.097900   1.003200
    H    2.817400   1.026800  -0.378600
    H    2.581000  -0.963300  -1.938400
    H    2.653800  -2.036400  -0.553400
    H    4.779000  -0.221000  -1.470000
    H    4.758600  -1.842500  -1.606500
}

set optking { frozen_dihedral = (" 3 2 1 5 ") }

energy, wfn = energy('B3LYP-D3', return_wfn=True)

import os
os.chdir(os.environ['HTMD_PSI4_WORKDIR'])

oeprop(wfn, 'DIPOLE', 'QUADRUPOLE', 'MULLIKEN_CHARGES')

with open('psi4out.xyz', 'w') as f:
    f.write('11 ' )
    f.write('%.12f\n' % energy)
    f.write(MOL.save_string_xyz())
--------------------------------------------------------------------------

    Molecular point group: c1

    Geometry (in Angstrom), charge = 0, multiplicity = 1:

       Center              X                  Y                   Z               Mass
    ------------   -----------------  -----------------  -----------------  -----------------
         O            1.050400000000     0.042900000000    -0.048100000000    15.994914619560
         C            2.474100000000     0.047400000000    -0.029000000000    12.000000000000
         C            3.002600000000    -1.068900000000    -0.932000000000    12.000000000000
         N            4.462700000000    -1.072400000000    -1.006800000000    14.003074004780
         H            0.781192000000    -0.680498000000    -0.639905000000     1.007825032070
         H            2.809900000000    -0.097900000000     1.003200000000     1.007825032070
         H            2.817400000000     1.026800000000    -0.378600000000     1.007825032070
         H            2.581000000000    -0.963300000000    -1.938400000000     1.007825032070
         H            2.653800000000    -2.036400000000    -0.553400000000     1.007825032070
         H            4.779000000000    -0.221000000000    -1.470000000000     1.007825032070
         H            4.758600000000    -1.842500000000    -1.606500000000     1.007825032070

  Charge       = 0
  Multiplicity = 1
  Basis Set: CC-PVDZ
    Blend: CC-PVDZ
  Basis Set: (CC-PVDZ AUX)
    Blend: CC-PVDZ-JKFIT

    Orbital Energies [Eh]
    ---------------------

    Doubly Occupied:

       1A    -19.126534     2A    -14.312381     3A    -10.224004
       4A    -10.213509     5A     -1.010583     6A     -0.884513
       7A     -0.712525     8A     -0.619920     9A     -0.503138
      10A     -0.476345    11A     -0.451527    12A     -0.441415
      13A     -0.397289    14A     -0.371997    15A     -0.320727
      16A     -0.261638    17A     -0.239770

  @DF-RKS Final Energy:  -210.39003308752305

   => Energetics <=

    Nuclear Repulsion Energy =            131.1185012207695877
    One-Electron Energy =                -544.9985961525368339
    Two-Electron Energy =                 226.9825347871109216
    DFT Exchange-Correlation Energy =     -23.4873410028667351
    Empirical Dispersion Energy =          -0.0051319400000000
    VV10 Nonlocal Energy =                  0.0000000000000000
    Total Energy =                       -210.3900330875230793

  Dipole Moment: [D]
     X:     0.7268      Y:    -1.0626      Z:    -2.1271     Total:     2.4864

  Mulliken Charges: (a.u.)
   Center  Symbol    Alpha    Beta     Spin     Total
       1     O     4.13793  4.13793  0.00000 -0.27586
       2     C     2.91305  2.91305  0.00000  0.17389
       3     C     3.01289  3.01289  0.00000 -0.02579
       4     N     3.58870  3.58870  0.00000 -0.17739
       5     H     0.43303  0.43303  0.00000  0.13393
       6     H     0.49240  0.49240  0.00000  0.01520
       7     H     0.49953  0.49953  0.00000  0.00094
       8     H     0.50389  0.50389  0.00000 -0.00777
       9     H     0.49138  0.49138  0.00000  0.01724
      10     H     0.46352  0.46352  0.00000  0.07296
      11     H     0.46368  0.46368  0.00000  0.07265

   Total alpha = 17.00000, Total beta = 17.00000, Total charge = -0.00000

*** Psi4 exiting successfully. Buy a developer a beer!
