                               Psi4 1.2.1 release

  ==> Input File <==

--------------------------------------------------------------------------
set_num_threads(1)
set_memory('5348 MB')

set { scf_mem_safety_factor 0.7 }

set { reference rks }
set { basis cc-pVDZ }

molecule MOL {
    0 1
    noreorient
    nocom
    symmetry c1
    O    1.014300  -0.002300   0.060500
    O    2.462400  -0.107500  -0.002400
    H    0.821200  -0.823600  -0.430600
    H    2.545738  -0.866879   0.605246
}

set optking { frozen_dihedral = (" 3 1 2 4 ") }

set optking { dynamic_level = 1
 geom_maxiter = 250
 print_trajectory_xyz_file = True }

energy, wfn = optimize('B3LYP-D3', return_wfn=True)

import os
os.chdir(os.environ['HTMD_PSI4_WORKDIR'])

oeprop(wfn, 'DIPOLE', 'QUADRUPOLE', 'MULLIKEN_CHARGES')

with open('psi4out.xyz', 'w') as f:
    f.write('4 ' )
    f.write('%.12f\n' % energy)
    f.write(MOL.save_string_xyz())
--------------------------------------------------------------------------

    Molecular point group: c1
  Charge       = 0
  Multiplicity = 1
  Basis Set: CC-PVDZ
    Blend: CC-PVDZ
  Basis Set: (CC-PVDZ AUX)
    Blend: CC-PVDZ-JKFIT
  @DF-RKS Final Energy:  -151.54570673402938
    Total Energy =                       -151.5457067340293804
    Molecular point group: c1
  Basis Set: CC-PVDZ
    Blend: CC-PVDZ
  Basis Set: (CC-PVDZ AUX)
    Blend: CC-PVDZ-JKFIT
  Basis Set: CC-PVDZ
    Blend: CC-PVDZ
  Basis Set: (CC-PVDZ AUX)
    Blend: CC-PVDZ-JKFIT
  @DF-RKS Final Energy:  -151.54721349374543
    Total Energy =                       -151.5472134937454314
  Basis Set: CC-PVDZ
    Blend: CC-PVDZ
  Basis Set: (CC-PVDZ AUX)
    Blend: CC-PVDZ-JKFIT
  Basis Set: CC-PVDZ
    Blend: CC-PVDZ
  @DF-RKS Final Energy:  -151.54775788510977
    Total Energy =                       -151.5477578851097746
  Basis Set: (CC-PVDZ AUX)
    Blend: CC-PVDZ-JKFIT
  Basis Set: CC-PVDZ
    Blend: CC-PVDZ
  Basis Set: (CC-PVDZ AUX)
    Blend: CC-PVDZ-JKFIT
  @DF-RKS Final Energy:  -151.54778112731304
    Total Energy =                       -151.5477811273130442
  Basis Set: CC-PVDZ
    Blend: CC-PVDZ
  Basis Set: (CC-PVDZ AUX)
    Blend: CC-PVDZ-JKFIT
  Charge       = 0
  Multiplicity = 1
  Basis Set: CC-PVDZ
    Blend: CC-PVDZ
  Basis Set: (CC-PVDZ AUX)
    Blend: CC-PVDZ-JKFIT

    Orbital Energies [Eh]
    ---------------------

    Doubly Occupied:

       1A    -19.189664     2A    -19.189627     3A     -1.112238
       4A     -0.889756     5A     -0.546969     6A     -0.451068
       7A     -0.417620     8A     -0.309993     9A     -0.272560

  @DF-RKS Final Energy:  -151.54778267066715

   => Energetics <=

    Nuclear Repulsion Energy =             36.7578310135505646
    One-Electron Energy =                -281.4689977791338151
    Two-Electron Energy =                 107.6241744422726612
    DFT Exchange-Correlation Energy =     -14.4604725773565654
    Empirical Dispersion Energy =          -0.0003177700000000
    VV10 Nonlocal Energy =                  0.0000000000000000
    Total Energy =                       -151.5477826706671749
    Molecular point group: c1
  Basis Set: CC-PVDZ
    Blend: CC-PVDZ
  Basis Set: (CC-PVDZ AUX)
    Blend: CC-PVDZ-JKFIT

  -Total Gradient:
     Atom            X                  Y                   Z
    ------   -----------------  -----------------  -----------------
       1        0.000178155883     0.002328587793    -0.005126936150
       2        0.000195487008     0.003054752431     0.004729626709
       3       -0.000131287943    -0.002399343215     0.004038725028
       4       -0.000240599687    -0.002958712652    -0.003643280359

  **** Optimization is complete! (in 5 steps) ****
    Final optimized geometry and variables:
    Molecular point group: c1

    Geometry (in Angstrom), charge = 0, multiplicity = 1:

    O            1.015938401019    -0.011210657669     0.034340815811
    O            2.459805393534    -0.112154585143     0.024735335580
    H            0.748862274121    -0.813301279705    -0.452187224281
    H            2.619031931325    -0.863612477483     0.625857072890

  Dipole Moment: [D]
     X:    -0.1827      Y:    -2.6312      Z:     0.1941     Total:     2.6447

  Mulliken Charges: (a.u.)
   Center  Symbol    Alpha    Beta     Spin     Total
       1     O     4.08520  4.08520  0.00000 -0.17040
       2     O     4.08520  4.08520  0.00000 -0.17040
       3     H     0.41480  0.41480  0.00000  0.17040
       4     H     0.41480  0.41480  0.00000  0.17040

   Total alpha =  9.00000, Total beta =  9.00000, Total charge =  0.00000

*** Psi4 exiting successfully. Buy a developer a beer!
