                               Psi4 1.2.1 release

  ==> Input File <==

--------------------------------------------------------------------------
set_num_threads(4)
set_memory('3000 MB')

set { scf_mem_safety_factor 0.7 }

set { reference rks }
set { basis 6-31G* }

molecule MOL {
    1 1
    noreorient
    nocom
    symmetry c1
    C   -0.000000  -0.000000  -0.177864
    C    0.036678   1.219374   0.524165
    C    0.031765   1.213120   1.915444
    C    0.000000   0.000000   2.610107
    C   -0.031765  -1.213120   1.915444
    C   -0.036678  -1.219375   0.524165
    C   -0.000000   0.000000  -1.644734
    H    0.018170   2.164705  -0.010854
    H    0.042402   2.152895   2.457886
    H    0.000000   0.000000   3.695756
    H   -0.042402  -2.152895   2.457886
    H   -0.018170  -2.164705  -0.010853
    N   -0.034654  -1.152097  -2.308461
    N    0.034654   1.152098  -2.308460
    H   -0.056579   1.209666  -3.315997
    H    0.224422   2.013552  -1.813316
    H   -0.224422  -2.013552  -1.813317
    H    0.056579  -1.209665  -3.315997
}

set optking { frozen_dihedral = (" 2 1 7 13 ") }

set optking { dynamic_level = 1
 geom_maxiter = 250
 print_trajectory_xyz_file = True }

energy, wfn = optimize('B3LYP-D3', return_wfn=True)

import os
os.chdir(os.environ['HTMD_PSI4_WORKDIR'])

oeprop(wfn, 'DIPOLE', 'QUADRUPOLE', 'MULLIKEN_CHARGES')

with open('psi4out.xyz', 'w') as f:
    f.write('18 ' )
    f.write('%.12f\n' % energy)
    f.write(MOL.save_string_xyz())
--------------------------------------------------------------------------

    Molecular point group: c1
  Charge       = 1
  Multiplicity = 1
  Basis Set: 6-31G*
    Blend: 6-31G*
  Basis Set: (6-31G* AUX)
    Blend: CC-PVDZ-JKFIT
  @DF-RKS Final Energy:  -381.46394986836651
    Total Energy =                       -381.4639498683665693
    Molecular point group: c1
  Basis Set: 6-31G*
    Blend: 6-31G*
  Basis Set: (6-31G* AUX)
    Blend: CC-PVDZ-JKFIT
  Basis Set: 6-31G*
    Blend: 6-31G*
  Basis Set: (6-31G* AUX)
    Blend: CC-PVDZ-JKFIT
  @DF-RKS Final Energy:  -381.46529058756556
    Total Energy =                       -381.4652905875655051
  Basis Set: 6-31G*
    Blend: 6-31G*
  Basis Set: (6-31G* AUX)
    Blend: CC-PVDZ-JKFIT
  Basis Set: 6-31G*
    Blend: 6-31G*
  @DF-RKS Final Energy:  -381.46578881724417
    Total Energy =                       -381.4657888172441176
  @DF-RKS Final Energy:  -381.46582677353109
    Total Energy =                       -381.4658267735311483
  @DF-RKS Final Energy:  -381.46584965575988
    Total Energy =                       -381.4658496557598255
  @DF-RKS Final Energy:  -381.46586367147523
    Total Energy =                       -381.4658636714751765
  @DF-RKS Final Energy:  -381.46587575679985
    Total Energy =                       -381.4658757567998464
  @DF-RKS Final Energy:  -381.46588460886187
    Total Energy =                       -381.4658846088618702
  @DF-RKS Final Energy:  -381.46588939886834
    Total Energy =                       -381.4658893988682848
  Basis Set: (6-31G* AUX)
    Blend: CC-PVDZ-JKFIT
  Basis Set: 6-31G*
    Blend: 6-31G*
  Basis Set: (6-31G* AUX)
    Blend: CC-PVDZ-JKFIT
  @DF-RKS Final Energy:  -381.46589065924775
    Total Energy =                       -381.4658906592478047
  Basis Set: 6-31G*
    Blend: 6-31G*
  Basis Set: (6-31G* AUX)
    Blend: CC-PVDZ-JKFIT
  Charge       = 1
  Multiplicity = 1
  Basis Set: 6-31G*
    Blend: 6-31G*
  Basis Set: (6-31G* AUX)
    Blend: CC-PVDZ-JKFIT

    Orbital Energies [Eh]
    ---------------------

    Doubly Occupied:

       1A    -14.564711     2A    -14.564703     3A    -10.498757
       4A    -10.378882     5A    -10.361854     6A    -10.361845
       7A    -10.346501     8A    -10.342991     9A    -10.342949
      10A     -1.183291    11A     -1.088908    12A     -1.017527
      13A     -0.928935    14A     -0.906417    15A     -0.849308
      16A     -0.787674    17A     -0.776884    18A     -0.740264
      19A     -0.736051    20A     -0.685681    21A     -0.669528
      22A     -0.632597    23A     -0.609459    24A     -0.604850
      25A     -0.582658    26A     -0.578605    27A     -0.518370
      28A     -0.510322    29A     -0.501907    30A     -0.469689
      31A     -0.413529    32A     -0.408122

  @DF-RKS Final Energy:  -381.46589077249888

   => Energetics <=

    Nuclear Repulsion Energy =            416.4716117376549391
    One-Electron Energy =               -1327.9979158393157377
    Two-Electron Energy =                 574.4813331050606848
    DFT Exchange-Correlation Energy =     -44.4094675258987479
    Empirical Dispersion Energy =          -0.0114522500000000
    VV10 Nonlocal Energy =                  0.0000000000000000
    Total Energy =                       -381.4658907724988808
    Molecular point group: c1
  Basis Set: 6-31G*
    Blend: 6-31G*
  Basis Set: (6-31G* AUX)
    Blend: CC-PVDZ-JKFIT

  -Total Gradient:
     Atom            X                  Y                   Z
    ------   -----------------  -----------------  -----------------
       1       -0.000020557998     0.000003389427     0.000007091482
       2       -0.000002854089    -0.000008293828    -0.000008979780
       3        0.000014254820    -0.000004100607     0.000010207182
       4       -0.000010351362     0.000005695251     0.000003829825
       5       -0.000004514474    -0.000003030845     0.000002122539
       6        0.000000008338     0.000007829259    -0.000004263138
       7        0.000047712650    -0.000014045953    -0.000012541841
       8       -0.000000936507     0.000001708937     0.000007274678
       9        0.000000089141     0.000000995228    -0.000000569619
      10        0.000002644362    -0.000000853617     0.000001249221
      11        0.000004970999     0.000000363530     0.000000199959
      12       -0.000000754810    -0.000001794241     0.000003818012
      13       -0.000006877283     0.000021853232     0.000020795083
      14       -0.000034827459    -0.000006986768     0.000006205096
      15        0.000007362825     0.000002006730     0.000000387846
      16        0.000005284708    -0.000006284052    -0.000004179795
      17       -0.000001575030     0.000007977000    -0.000006784076
      18        0.000000935886    -0.000006410036    -0.000001340899

  **** Optimization is complete! (in 11 steps) ****
    Final optimized geometry and variables:
    Molecular point group: c1

    Geometry (in Angstrom), charge = 1, multiplicity = 1:

    C           -0.000206279504     0.000030123557    -0.176805818667
    C            0.040937609327     1.211133660033     0.543173458780
    C            0.041061581886     1.208842150692     1.932883725044
    C            0.000026414605    -0.000017471181     2.631904404747
    C           -0.041080692924    -1.208864089658     1.932844621643
    C           -0.041231416146    -1.211101381934     0.543144042054
    C            0.000000433388     0.000013306615    -1.649477264149
    H            0.073497356556     2.174540144484     0.044048590731
    H            0.073114359227     2.151070463043     2.469861759012
    H            0.000195826969    -0.000047278135     3.717439757625
    H           -0.072928734012    -2.151105497843     2.469809072454
    H           -0.073878150046    -2.174484309062     0.043976222632
    N           -0.038715088607    -1.139998251608    -2.337132756716
    N            0.038479570952     1.140025288915    -2.337175478508
    H            0.039800599052     1.159542932296    -3.349213074988
    H            0.069685430485     2.035887843993    -1.874585796388
    H           -0.069448298751    -2.035863128167    -1.874523443308
    H           -0.039310522457    -1.159603506040    -3.349172021997

  Dipole Moment: [D]
     X:     0.0020      Y:    -0.0001      Z:    -5.4813     Total:     5.4813

  Mulliken Charges: (a.u.)
   Center  Symbol    Alpha    Beta     Spin     Total
       1     C     2.92330  2.92330  0.00000  0.15339
       2     C     3.08669  3.08669  0.00000 -0.17339
       3     C     3.06153  3.06153  0.00000 -0.12306
       4     C     3.05119  3.05119  0.00000 -0.10238
       5     C     3.06153  3.06153  0.00000 -0.12306
       6     C     3.08669  3.08669  0.00000 -0.17339
       7     C     2.70472  2.70472  0.00000  0.59055
       8     H     0.42243  0.42243  0.00000  0.15513
       9     H     0.40493  0.40493  0.00000  0.19014
      10     H     0.40263  0.40263  0.00000  0.19475
      11     H     0.40493  0.40493  0.00000  0.19014
      12     H     0.42244  0.42244  0.00000  0.15513
      13     N     3.87877  3.87877  0.00000 -0.75755
      14     N     3.87877  3.87877  0.00000 -0.75755
      15     H     0.30596  0.30596  0.00000  0.38808
      16     H     0.29876  0.29876  0.00000  0.40249
      17     H     0.29876  0.29876  0.00000  0.40249
      18     H     0.30596  0.30596  0.00000  0.38808

   Total alpha = 32.00000, Total beta = 32.00000, Total charge =  1.00000

*** Psi4 exiting successfully. Buy a developer a beer!
