                               Psi4 1.2.1 release

  ==> Input File <==

--------------------------------------------------------------------------
set_num_threads(4)
set_memory('3000 MB')

set { scf_mem_safety_factor 0.7 }

set { reference rks }
set { basis 6-31G* }

molecule MOL {
    1 1
    noreorient
    nocom
    symmetry c1
    C   -0.000000  -0.000000  -0.177864
    C    0.036678   1.219374   0.524165
    C    0.031765   1.213120   1.915444
    C    0.000000   0.000000   2.610107
    C   -0.031765  -1.213120   1.915444
    C   -0.036678  -1.219375   0.524165
    C   -0.000000   0.000000  -1.644734
    H    0.018170   2.164705  -0.010854
    H    0.042402   2.152895   2.457886
    H    0.000000   0.000000   3.695756
    H   -0.042402  -2.152895   2.457886
    H   -0.018170  -2.164705  -0.010853
    N   -0.712590  -0.905950  -2.308461
    N    0.712590   0.905950  -2.308460
    H    0.673432   1.006470  -3.315997
    H    1.377190   1.485970  -1.813316
    H   -0.835873  -0.816342  -3.308488
    H   -1.094181  -1.735514  -1.869168
}

set optking { frozen_dihedral = (" 1 7 13 17 ") }

set optking { dynamic_level = 1
 geom_maxiter = 250
 print_trajectory_xyz_file = True }

energy, wfn = optimize('B3LYP-D3', return_wfn=True)

import os
os.chdir(os.environ['HTMD_PSI4_WORKDIR'])

oeprop(wfn, 'DIPOLE', 'QUADRUPOLE', 'MULLIKEN_CHARGES')

with open('psi4out.xyz', 'w') as f:
    f.write('18 ' )
    f.write('%.12f\n' % energy)
    f.write(MOL.save_string_xyz())
--------------------------------------------------------------------------

    Molecular point group: c1
  Charge       = 1
  Multiplicity = 1
  Basis Set: 6-31G*
    Blend: 6-31G*
  Basis Set: (6-31G* AUX)
    Blend: CC-PVDZ-JKFIT
  @DF-RKS Final Energy:  -381.46558328303576
    Total Energy =                       -381.4655832830357554
    Molecular point group: c1
  Basis Set: 6-31G*
    Blend: 6-31G*
  Basis Set: (6-31G* AUX)
    Blend: CC-PVDZ-JKFIT
  Basis Set: 6-31G*
    Blend: 6-31G*
  Basis Set: (6-31G* AUX)
    Blend: CC-PVDZ-JKFIT
  @DF-RKS Final Energy:  -381.46798991330542
    Total Energy =                       -381.4679899133054164
  Basis Set: 6-31G*
    Blend: 6-31G*
  Basis Set: (6-31G* AUX)
    Blend: CC-PVDZ-JKFIT
  Basis Set: 6-31G*
    Blend: 6-31G*
  @DF-RKS Final Energy:  -381.46923132332688
    Total Energy =                       -381.4692313233269374
  @DF-RKS Final Energy:  -381.46951110672904
    Total Energy =                       -381.4695111067290441
  @DF-RKS Final Energy:  -381.46954308863502
    Total Energy =                       -381.4695430886350209
  Basis Set: (6-31G* AUX)
    Blend: CC-PVDZ-JKFIT
  Basis Set: 6-31G*
    Blend: 6-31G*
  Basis Set: (6-31G* AUX)
    Blend: CC-PVDZ-JKFIT
  @DF-RKS Final Energy:  -381.46954789995397
    Total Energy =                       -381.4695478999540228
  Basis Set: 6-31G*
    Blend: 6-31G*
  Basis Set: (6-31G* AUX)
    Blend: CC-PVDZ-JKFIT
  Charge       = 1
  Multiplicity = 1
  Basis Set: 6-31G*
    Blend: 6-31G*
  Basis Set: (6-31G* AUX)
    Blend: CC-PVDZ-JKFIT

    Orbital Energies [Eh]
    ---------------------

    Doubly Occupied:

       1A    -14.569670     2A    -14.568026     3A    -10.498405
       4A    -10.373852     5A    -10.356524     6A    -10.355879
       7A    -10.342673     8A    -10.340497     9A    -10.340362
      10A     -1.184939    11A     -1.093298    12A     -1.014472
      13A     -0.926872    14A     -0.902285    15A     -0.845597
      16A     -0.785856    17A     -0.774310    18A     -0.740896
      19A     -0.733103    20A     -0.687162    21A     -0.668773
      22A     -0.626299    23A     -0.617192    24A     -0.589620
      25A     -0.578548    26A     -0.573577    27A     -0.517974
      28A     -0.505838    29A     -0.498253    30A     -0.474473
      31A     -0.411209    32A     -0.405731

  @DF-RKS Final Energy:  -381.46954840421881

   => Energetics <=

    Nuclear Repulsion Energy =            416.9224521854872023
    One-Electron Energy =               -1329.0322337804370818
    Two-Electron Energy =                 575.0574597669160539
    DFT Exchange-Correlation Energy =     -44.4053149261849001
    Empirical Dispersion Energy =          -0.0119116500000000
    VV10 Nonlocal Energy =                  0.0000000000000000
    Total Energy =                       -381.4695484042188127
    Molecular point group: c1
  Basis Set: 6-31G*
    Blend: 6-31G*
  Basis Set: (6-31G* AUX)
    Blend: CC-PVDZ-JKFIT

  -Total Gradient:
     Atom            X                  Y                   Z
    ------   -----------------  -----------------  -----------------
       1       -0.002298211485     0.001725289799     0.000056271949
       2       -0.000016798922    -0.000000148669    -0.000021926427
       3        0.000007706848     0.000002369920     0.000004986345
       4       -0.000008616869    -0.000006691918    -0.000013823577
       5        0.000003052678     0.000013840926     0.000006823827
       6       -0.000017344180    -0.000018408555    -0.000010961114
       7        0.002123533401    -0.001707579065     0.000200861186
       8        0.000009163824    -0.000004570688    -0.000004685115
       9        0.000002259708    -0.000002915097    -0.000001691096
      10        0.000002702633     0.000000732617    -0.000000912900
      11        0.000005812842    -0.000002285940    -0.000001376314
      12        0.000011146477     0.000006191433    -0.000000953238
      13        0.003790795211    -0.002187853706    -0.000862273042
      14       -0.000003704781    -0.000057367551    -0.000000884525
      15       -0.000016305546     0.000014520198     0.000000484941
      16       -0.000007584489    -0.000006408679     0.000007883842
      17       -0.003557998241     0.002241869790     0.000606129825
      18       -0.000032682811    -0.000013947075     0.000012143436

  **** Optimization is complete! (in 7 steps) ****
    Final optimized geometry and variables:
    Molecular point group: c1

    Geometry (in Angstrom), charge = 1, multiplicity = 1:

    C            0.026825258575    -0.015150179256    -0.181338403462
    C            0.034002658850     1.206733085685     0.516542113644
    C            0.010191760370     1.204187556613     1.907957118735
    C           -0.008100939217    -0.006650496127     2.606463815632
    C           -0.008088356085    -1.222189668644     1.915318384427
    C            0.004767464177    -1.232798598556     0.524139730898
    C            0.035763639950    -0.017884828654    -1.649317404614
    H            0.005226859737     2.150711396805    -0.020298300057
    H           -0.003572263448     2.145932741305     2.446924209309
    H           -0.022119334649    -0.003122488080     3.691996709448
    H           -0.007472573210    -2.160466822293     2.460469915118
    H            0.048272529067    -2.179424363774    -0.007359001946
    N           -0.657235436950    -0.941622836504    -2.314319269870
    N            0.717533705448     0.912021199499    -2.310032939872
    H            0.700962343120     0.993881334734    -3.319986058241
    H            1.362728412646     1.511787051684    -1.812523336767
    H           -0.799290582187    -0.892436343251    -3.316935544464
    H           -1.319827146196    -1.512924741186    -1.805043737920

  Dipole Moment: [D]
     X:    -0.1593      Y:     0.2258      Z:    -5.7485     Total:     5.7551

  Mulliken Charges: (a.u.)
   Center  Symbol    Alpha    Beta     Spin     Total
       1     C     2.95714  2.95714  0.00000  0.08572
       2     C     3.08255  3.08255  0.00000 -0.16510
       3     C     3.06250  3.06250  0.00000 -0.12500
       4     C     3.05161  3.05161  0.00000 -0.10322
       5     C     3.06243  3.06243  0.00000 -0.12485
       6     C     3.08333  3.08333  0.00000 -0.16667
       7     C     2.72482  2.72482  0.00000  0.55037
       8     H     0.41466  0.41466  0.00000  0.17069
       9     H     0.40550  0.40550  0.00000  0.18901
      10     H     0.40396  0.40396  0.00000  0.19209
      11     H     0.40536  0.40536  0.00000  0.18928
      12     H     0.41276  0.41276  0.00000  0.17448
      13     N     3.86012  3.86012  0.00000 -0.72025
      14     N     3.86196  3.86196  0.00000 -0.72392
      15     H     0.30538  0.30538  0.00000  0.38925
      16     H     0.29918  0.29918  0.00000  0.40163
      17     H     0.30618  0.30618  0.00000  0.38764
      18     H     0.30057  0.30057  0.00000  0.39886

   Total alpha = 32.00000, Total beta = 32.00000, Total charge =  1.00000

*** Psi4 exiting successfully. Buy a developer a beer!
