                               Psi4 1.2.1 release

  ==> Input File <==

--------------------------------------------------------------------------
set_num_threads(1)
set_memory('5348 MB')

set { scf_mem_safety_factor 0.7 }

set { reference rks }
set { basis cc-pVDZ }

molecule MOL {
    0 1
    noreorient
    nocom
    symmetry c1
    O    1.141000   0.017000   0.083000
    C    2.558000   0.086000  -0.005000
    C    3.192000  -0.789000   1.067000
    O    2.978168  -2.162642   0.765749
    H    0.789000   0.590000  -0.620000
    H    2.874000   1.128000   0.115000
    H    2.871000  -0.243000  -1.001000
    H    2.760421  -0.565313   2.047633
    H    4.269719  -0.599690   1.126668
    H    3.400971  -2.672796   1.478396
}

set optking { frozen_dihedral = (" 1 2 3 4 ") }

energy, wfn = energy('B3LYP-D3', return_wfn=True)

import os
os.chdir(os.environ['HTMD_PSI4_WORKDIR'])

oeprop(wfn, 'DIPOLE', 'QUADRUPOLE', 'MULLIKEN_CHARGES')

with open('psi4out.xyz', 'w') as f:
    f.write('10 ' )
    f.write('%.12f\n' % energy)
    f.write(MOL.save_string_xyz())
--------------------------------------------------------------------------

    Molecular point group: c1

    Geometry (in Angstrom), charge = 0, multiplicity = 1:

       Center              X                  Y                   Z               Mass
    ------------   -----------------  -----------------  -----------------  -----------------
         O            1.141000000000     0.017000000000     0.083000000000    15.994914619560
         C            2.558000000000     0.086000000000    -0.005000000000    12.000000000000
         C            3.192000000000    -0.789000000000     1.067000000000    12.000000000000
         O            2.978168000000    -2.162642000000     0.765749000000    15.994914619560
         H            0.789000000000     0.590000000000    -0.620000000000     1.007825032070
         H            2.874000000000     1.128000000000     0.115000000000     1.007825032070
         H            2.871000000000    -0.243000000000    -1.001000000000     1.007825032070
         H            2.760421000000    -0.565313000000     2.047633000000     1.007825032070
         H            4.269719000000    -0.599690000000     1.126668000000     1.007825032070
         H            3.400971000000    -2.672796000000     1.478396000000     1.007825032070

  Charge       = 0
  Multiplicity = 1
  Basis Set: CC-PVDZ
    Blend: CC-PVDZ
  Basis Set: (CC-PVDZ AUX)
    Blend: CC-PVDZ-JKFIT

    Orbital Energies [Eh]
    ---------------------

    Doubly Occupied:

       1A    -19.125270     2A    -19.125213     3A    -10.227270
       4A    -10.227075     5A     -1.016477     6A     -1.000027
       7A     -0.733700     8A     -0.602481     9A     -0.517996
      10A     -0.505429    11A     -0.433468    12A     -0.418168
      13A     -0.405810    14A     -0.341974    15A     -0.318002
      16A     -0.264080    17A     -0.255897

  @DF-RKS Final Energy:  -230.25643436485723

   => Energetics <=

    Nuclear Repulsion Energy =            131.4796559075528535
    One-Electron Energy =                -574.8046468035420276
    Two-Electron Energy =                 237.6095295826539200
    DFT Exchange-Correlation Energy =     -24.5366106515219720
    Empirical Dispersion Energy =          -0.0043624000000000
    VV10 Nonlocal Energy =                  0.0000000000000000
    Total Energy =                       -230.2564343648572276

  Dipole Moment: [D]
     X:     1.4053      Y:     1.2462      Z:     0.1839     Total:     1.8873

  Mulliken Charges: (a.u.)
   Center  Symbol    Alpha    Beta     Spin     Total
       1     O     4.13588  4.13588  0.00000 -0.27176
       2     C     2.93182  2.93182  0.00000  0.13635
       3     C     2.93198  2.93198  0.00000  0.13604
       4     O     4.13611  4.13611  0.00000 -0.27221
       5     H     0.43079  0.43079  0.00000  0.13842
       6     H     0.50397  0.50397  0.00000 -0.00793
       7     H     0.49748  0.49748  0.00000  0.00504
       8     H     0.49738  0.49738  0.00000  0.00525
       9     H     0.50386  0.50386  0.00000 -0.00772
      10     H     0.43073  0.43073  0.00000  0.13853

   Total alpha = 17.00000, Total beta = 17.00000, Total charge =  0.00000

*** Psi4 exiting successfully. Buy a developer a beer!
