                               Psi4 1.2.1 release

  ==> Input File <==

--------------------------------------------------------------------------
set_num_threads(1)
set_memory('5348 MB')

set { scf_mem_safety_factor 0.7 }

set { reference rks }
set { basis cc-pVDZ }

molecule MOL {
    0 1
    noreorient
    nocom
    symmetry c1
    O    1.050400   0.042900  -0.048100
    C    2.474100   0.047400  -0.029000
    C    3.002600  -1.068900  -0.932000
    N    2.212158  -2.293221  -0.814784
    H    0.760400   0.728400   0.578000
    H    2.809900  -0.097900   1.003200
    H    2.817400   1.026800  -0.378600
    H    4.050035  -1.280080  -0.687009
    H    2.994175  -0.726802  -1.973131
    H    2.319020  -2.675376   0.124375
    H    2.598039  -2.994586  -1.446791
}

set optking { frozen_dihedral = (" 1 2 3 4 ") }

energy, wfn = energy('B3LYP-D3', return_wfn=True)

import os
os.chdir(os.environ['HTMD_PSI4_WORKDIR'])

oeprop(wfn, 'DIPOLE', 'QUADRUPOLE', 'MULLIKEN_CHARGES')

with open('psi4out.xyz', 'w') as f:
    f.write('11 ' )
    f.write('%.12f\n' % energy)
    f.write(MOL.save_string_xyz())
--------------------------------------------------------------------------

    Molecular point group: c1

    Geometry (in Angstrom), charge = 0, multiplicity = 1:

       Center              X                  Y                   Z               Mass
    ------------   -----------------  -----------------  -----------------  -----------------
         O            1.050400000000     0.042900000000    -0.048100000000    15.994914619560
         C            2.474100000000     0.047400000000    -0.029000000000    12.000000000000
         C            3.002600000000    -1.068900000000    -0.932000000000    12.000000000000
         N            2.212158000000    -2.293221000000    -0.814784000000    14.003074004780
         H            0.760400000000     0.728400000000     0.578000000000     1.007825032070
         H            2.809900000000    -0.097900000000     1.003200000000     1.007825032070
         H            2.817400000000     1.026800000000    -0.378600000000     1.007825032070
         H            4.050035000000    -1.280080000000    -0.687009000000     1.007825032070
         H            2.994175000000    -0.726802000000    -1.973131000000     1.007825032070
         H            2.319020000000    -2.675376000000     0.124375000000     1.007825032070
         H            2.598039000000    -2.994586000000    -1.446791000000     1.007825032070

  Charge       = 0
  Multiplicity = 1
  Basis Set: CC-PVDZ
    Blend: CC-PVDZ
  Basis Set: (CC-PVDZ AUX)
    Blend: CC-PVDZ-JKFIT

    Orbital Energies [Eh]
    ---------------------

    Doubly Occupied:

       1A    -19.119983     2A    -14.296375     3A    -10.223837
       4A    -10.202444     5A     -1.003788     6A     -0.869462
       7A     -0.713892     8A     -0.592720     9A     -0.506453
      10A     -0.484949    11A     -0.440569    12A     -0.415925
      13A     -0.387023    14A     -0.363640    15A     -0.317062
      16A     -0.254944    17A     -0.221912

  @DF-RKS Final Energy:  -210.38548250390249

   => Energetics <=

    Nuclear Repulsion Energy =            133.3047053173392555
    One-Electron Energy =                -549.6686554820989841
    Two-Electron Energy =                 229.4694729950575720
    DFT Exchange-Correlation Energy =     -23.4860750042003374
    Empirical Dispersion Energy =          -0.0049303300000000
    VV10 Nonlocal Energy =                  0.0000000000000000
    Total Energy =                       -210.3854825039024945

  Dipole Moment: [D]
     X:     1.8280      Y:     0.4717      Z:     1.0973     Total:     2.1836

  Mulliken Charges: (a.u.)
   Center  Symbol    Alpha    Beta     Spin     Total
       1     O     4.13120  4.13120  0.00000 -0.26240
       2     C     2.93324  2.93324  0.00000  0.13351
       3     C     2.98332  2.98332  0.00000  0.03335
       4     N     3.58047  3.58047  0.00000 -0.16094
       5     H     0.43269  0.43269  0.00000  0.13461
       6     H     0.50465  0.50465  0.00000 -0.00929
       7     H     0.50174  0.50174  0.00000 -0.00348
       8     H     0.50652  0.50652  0.00000 -0.01304
       9     H     0.49139  0.49139  0.00000  0.01722
      10     H     0.46791  0.46791  0.00000  0.06418
      11     H     0.46687  0.46687  0.00000  0.06626

   Total alpha = 17.00000, Total beta = 17.00000, Total charge = -0.00000

*** Psi4 exiting successfully. Buy a developer a beer!
