                               Psi4 1.2.1 release

  ==> Input File <==

--------------------------------------------------------------------------
set_num_threads(1)
set_memory('5348 MB')

set { scf_mem_safety_factor 0.7 }

set { reference rks }
set { basis cc-pVDZ }

molecule MOL {
    0 1
    noreorient
    nocom
    symmetry c1
    O    1.014300  -0.002300   0.060500
    O    2.462400  -0.107500  -0.002400
    H    0.821200  -0.823600  -0.430600
    H    2.496860  -0.724675  -0.757876
}

set optking { frozen_dihedral = (" 3 1 2 4 ") }

set optking { dynamic_level = 1
 geom_maxiter = 250
 print_trajectory_xyz_file = True }

energy, wfn = optimize('B3LYP-D3', return_wfn=True)

import os
os.chdir(os.environ['HTMD_PSI4_WORKDIR'])

oeprop(wfn, 'DIPOLE', 'QUADRUPOLE', 'MULLIKEN_CHARGES')

with open('psi4out.xyz', 'w') as f:
    f.write('4 ' )
    f.write('%.12f\n' % energy)
    f.write(MOL.save_string_xyz())
--------------------------------------------------------------------------

    Molecular point group: c1
  Charge       = 0
  Multiplicity = 1
  Basis Set: CC-PVDZ
    Blend: CC-PVDZ
  Basis Set: (CC-PVDZ AUX)
    Blend: CC-PVDZ-JKFIT
  @DF-RKS Final Energy:  -151.53511677010249
    Total Energy =                       -151.5351167701024622
    Molecular point group: c1
  Basis Set: CC-PVDZ
    Blend: CC-PVDZ
  Basis Set: (CC-PVDZ AUX)
    Blend: CC-PVDZ-JKFIT
  Basis Set: CC-PVDZ
    Blend: CC-PVDZ
  Basis Set: (CC-PVDZ AUX)
    Blend: CC-PVDZ-JKFIT
  @DF-RKS Final Energy:  -151.53821650095807
    Total Energy =                       -151.5382165009580433
  Basis Set: CC-PVDZ
    Blend: CC-PVDZ
  Basis Set: (CC-PVDZ AUX)
    Blend: CC-PVDZ-JKFIT
  Basis Set: CC-PVDZ
    Blend: CC-PVDZ
  @DF-RKS Final Energy:  -151.53965720622813
    Total Energy =                       -151.5396572062281280
  Basis Set: (CC-PVDZ AUX)
    Blend: CC-PVDZ-JKFIT
  Basis Set: CC-PVDZ
    Blend: CC-PVDZ
  Basis Set: (CC-PVDZ AUX)
    Blend: CC-PVDZ-JKFIT
  @DF-RKS Final Energy:  -151.53971148586811
    Total Energy =                       -151.5397114858681391
  Basis Set: CC-PVDZ
    Blend: CC-PVDZ
  Basis Set: (CC-PVDZ AUX)
    Blend: CC-PVDZ-JKFIT
  Charge       = 0
  Multiplicity = 1
  Basis Set: CC-PVDZ
    Blend: CC-PVDZ
  Basis Set: (CC-PVDZ AUX)
    Blend: CC-PVDZ-JKFIT

    Orbital Energies [Eh]
    ---------------------

    Doubly Occupied:

       1A    -19.190074     2A    -19.190045     3A     -1.108371
       4A     -0.893758     5A     -0.562654     6A     -0.418463
       7A     -0.404327     8A     -0.361979     9A     -0.248475

  @DF-RKS Final Energy:  -151.53971607421022

   => Energetics <=

    Nuclear Repulsion Energy =             36.5345484290120552
    One-Electron Energy =                -281.0108896979636484
    Two-Electron Energy =                 107.3943994571495466
    DFT Exchange-Correlation Energy =     -14.4574761724081977
    Empirical Dispersion Energy =          -0.0002980900000000
    VV10 Nonlocal Energy =                  0.0000000000000000
    Total Energy =                       -151.5397160742102471
    Molecular point group: c1
  Basis Set: CC-PVDZ
    Blend: CC-PVDZ
  Basis Set: (CC-PVDZ AUX)
    Blend: CC-PVDZ-JKFIT

  -Total Gradient:
     Atom            X                  Y                   Z
    ------   -----------------  -----------------  -----------------
       1       -0.000034935026    -0.002524366540     0.003903630474
       2        0.000141726854     0.003494202852    -0.003063035740
       3       -0.000000077816     0.001782966930    -0.003042775483
       4       -0.000106619466    -0.002751945861     0.002202923791

  **** Optimization is complete! (in 5 steps) ****
    Final optimized geometry and variables:
    Molecular point group: c1

    Geometry (in Angstrom), charge = 0, multiplicity = 1:

    O            1.010414196109    -0.020781263355     0.062586505988
    O            2.464129673777    -0.108393916768    -0.021266992514
    H            0.693919800466    -0.813534398001    -0.406282548051
    H            2.626296329648    -0.715365421876    -0.765412965423

  Dipole Moment: [D]
     X:    -0.2592      Y:    -2.3512      Z:    -2.0376     Total:     3.1220

  Mulliken Charges: (a.u.)
   Center  Symbol    Alpha    Beta     Spin     Total
       1     O     4.08099  4.08099  0.00000 -0.16198
       2     O     4.08099  4.08099  0.00000 -0.16198
       3     H     0.41901  0.41901  0.00000  0.16198
       4     H     0.41901  0.41901  0.00000  0.16198

   Total alpha =  9.00000, Total beta =  9.00000, Total charge = -0.00000

*** Psi4 exiting successfully. Buy a developer a beer!
