                               Psi4 1.2.1 release

  ==> Input File <==

--------------------------------------------------------------------------
set_num_threads(1)
set_memory('5348 MB')

set { scf_mem_safety_factor 0.7 }

set { reference rks }
set { basis cc-pVDZ }

molecule MOL {
    0 1
    noreorient
    nocom
    symmetry c1
    O    1.050400   0.042900  -0.048100
    C    2.474100   0.047400  -0.029000
    C    3.002600  -1.068900  -0.932000
    N    4.462700  -1.072400  -1.006800
    H    0.760400   0.728400   0.578000
    H    2.809900  -0.097900   1.003200
    H    2.817400   1.026800  -0.378600
    H    2.581000  -0.963300  -1.938400
    H    2.653800  -2.036400  -0.553400
    H    4.791918  -0.131771  -1.222008
    H    4.749478  -1.654957  -1.793334
}

set optking { frozen_dihedral = (" 2 3 4 10 ") }

energy, wfn = energy('B3LYP-D3', return_wfn=True)

import os
os.chdir(os.environ['HTMD_PSI4_WORKDIR'])

oeprop(wfn, 'DIPOLE', 'QUADRUPOLE', 'MULLIKEN_CHARGES')

with open('psi4out.xyz', 'w') as f:
    f.write('11 ' )
    f.write('%.12f\n' % energy)
    f.write(MOL.save_string_xyz())
--------------------------------------------------------------------------

    Molecular point group: c1

    Geometry (in Angstrom), charge = 0, multiplicity = 1:

       Center              X                  Y                   Z               Mass
    ------------   -----------------  -----------------  -----------------  -----------------
         O            1.050400000000     0.042900000000    -0.048100000000    15.994914619560
         C            2.474100000000     0.047400000000    -0.029000000000    12.000000000000
         C            3.002600000000    -1.068900000000    -0.932000000000    12.000000000000
         N            4.462700000000    -1.072400000000    -1.006800000000    14.003074004780
         H            0.760400000000     0.728400000000     0.578000000000     1.007825032070
         H            2.809900000000    -0.097900000000     1.003200000000     1.007825032070
         H            2.817400000000     1.026800000000    -0.378600000000     1.007825032070
         H            2.581000000000    -0.963300000000    -1.938400000000     1.007825032070
         H            2.653800000000    -2.036400000000    -0.553400000000     1.007825032070
         H            4.791918000000    -0.131771000000    -1.222008000000     1.007825032070
         H            4.749478000000    -1.654957000000    -1.793334000000     1.007825032070

  Charge       = 0
  Multiplicity = 1
  Basis Set: CC-PVDZ
    Blend: CC-PVDZ
  Basis Set: (CC-PVDZ AUX)
    Blend: CC-PVDZ-JKFIT

    Orbital Energies [Eh]
    ---------------------

    Doubly Occupied:

       1A    -19.128795     2A    -14.304006     3A    -10.226686
       4A    -10.201574     5A     -1.011152     6A     -0.876648
       7A     -0.712695     8A     -0.599424     9A     -0.507710
      10A     -0.480378    11A     -0.461812    12A     -0.414097
      13A     -0.384015    14A     -0.370403    15A     -0.323924
      16A     -0.262530    17A     -0.229569

  @DF-RKS Final Energy:  -210.39039648117222

   => Energetics <=

    Nuclear Repulsion Energy =            130.5070549743072661
    One-Electron Energy =                -543.9217725437906665
    Two-Electron Energy =                 226.5159555581311679
    DFT Exchange-Correlation Energy =     -23.4867037498200020
    Empirical Dispersion Energy =          -0.0049307200000000
    VV10 Nonlocal Energy =                  0.0000000000000000
    Total Energy =                       -210.3903964811722460

  Dipole Moment: [D]
     X:     0.4164      Y:     1.3400      Z:    -0.2721     Total:     1.4294

  Mulliken Charges: (a.u.)
   Center  Symbol    Alpha    Beta     Spin     Total
       1     O     4.13856  4.13856  0.00000 -0.27712
       2     C     2.93425  2.93425  0.00000  0.13150
       3     C     2.98037  2.98037  0.00000  0.03926
       4     N     3.59419  3.59419  0.00000 -0.18838
       5     H     0.42978  0.42978  0.00000  0.14044
       6     H     0.49719  0.49719  0.00000  0.00563
       7     H     0.50422  0.50422  0.00000 -0.00844
       8     H     0.50077  0.50077  0.00000 -0.00153
       9     H     0.48989  0.48989  0.00000  0.02022
      10     H     0.46735  0.46735  0.00000  0.06530
      11     H     0.46344  0.46344  0.00000  0.07312

   Total alpha = 17.00000, Total beta = 17.00000, Total charge =  0.00000

*** Psi4 exiting successfully. Buy a developer a beer!
