                               Psi4 1.2.1 release

  ==> Input File <==

--------------------------------------------------------------------------
set_num_threads(1)
set_memory('5348 MB')

set { scf_mem_safety_factor 0.7 }

set { reference rks }
set { basis cc-pVDZ }

molecule MOL {
    0 1
    noreorient
    nocom
    symmetry c1
    O    1.141000   0.017000   0.083000
    C    2.558000   0.086000  -0.005000
    C    3.192000  -0.789000   1.067000
    O    2.466322  -0.672392   2.284852
    H    0.789000   0.590000  -0.620000
    H    2.874000   1.128000   0.115000
    H    2.871000  -0.243000  -1.001000
    H    4.231087  -0.490982   1.238526
    H    3.194512  -1.838433   0.751465
    H    2.912004  -1.248127   2.930440
}

set optking { frozen_dihedral = (" 1 2 3 4 ") }

energy, wfn = energy('B3LYP-D3', return_wfn=True)

import os
os.chdir(os.environ['HTMD_PSI4_WORKDIR'])

oeprop(wfn, 'DIPOLE', 'QUADRUPOLE', 'MULLIKEN_CHARGES')

with open('psi4out.xyz', 'w') as f:
    f.write('10 ' )
    f.write('%.12f\n' % energy)
    f.write(MOL.save_string_xyz())
--------------------------------------------------------------------------

    Molecular point group: c1

    Geometry (in Angstrom), charge = 0, multiplicity = 1:

       Center              X                  Y                   Z               Mass
    ------------   -----------------  -----------------  -----------------  -----------------
         O            1.141000000000     0.017000000000     0.083000000000    15.994914619560
         C            2.558000000000     0.086000000000    -0.005000000000    12.000000000000
         C            3.192000000000    -0.789000000000     1.067000000000    12.000000000000
         O            2.466322000000    -0.672392000000     2.284852000000    15.994914619560
         H            0.789000000000     0.590000000000    -0.620000000000     1.007825032070
         H            2.874000000000     1.128000000000     0.115000000000     1.007825032070
         H            2.871000000000    -0.243000000000    -1.001000000000     1.007825032070
         H            4.231087000000    -0.490982000000     1.238526000000     1.007825032070
         H            3.194512000000    -1.838433000000     0.751465000000     1.007825032070
         H            2.912004000000    -1.248127000000     2.930440000000     1.007825032070

  Charge       = 0
  Multiplicity = 1
  Basis Set: CC-PVDZ
    Blend: CC-PVDZ
  Basis Set: (CC-PVDZ AUX)
    Blend: CC-PVDZ-JKFIT

    Orbital Energies [Eh]
    ---------------------

    Doubly Occupied:

       1A    -19.123610     2A    -19.123570     3A    -10.227004
       4A    -10.226818     5A     -1.016437     6A     -0.996464
       7A     -0.733996     8A     -0.600782     9A     -0.523925
      10A     -0.491142    11A     -0.448536    12A     -0.414228
      13A     -0.398810    14A     -0.335072    15A     -0.320413
      16A     -0.261220    17A     -0.253306

  @DF-RKS Final Energy:  -230.25166888532095

   => Energetics <=

    Nuclear Repulsion Energy =            132.5270857526193709
    One-Electron Energy =                -576.9357899732945043
    Two-Electron Energy =                 238.6982646530569525
    DFT Exchange-Correlation Energy =     -24.5370430377027695
    Empirical Dispersion Energy =          -0.0041862800000000
    VV10 Nonlocal Energy =                  0.0000000000000000
    Total Energy =                       -230.2516688853209530

  Dipole Moment: [D]
     X:     1.8073      Y:    -0.0403      Z:    -1.1039     Total:     2.1182

  Mulliken Charges: (a.u.)
   Center  Symbol    Alpha    Beta     Spin     Total
       1     O     4.13182  4.13182  0.00000 -0.26365
       2     C     2.93417  2.93417  0.00000  0.13167
       3     C     2.93426  2.93426  0.00000  0.13148
       4     O     4.13207  4.13207  0.00000 -0.26414
       5     H     0.43079  0.43079  0.00000  0.13843
       6     H     0.50017  0.50017  0.00000 -0.00033
       7     H     0.50302  0.50302  0.00000 -0.00605
       8     H     0.50291  0.50291  0.00000 -0.00582
       9     H     0.50006  0.50006  0.00000 -0.00012
      10     H     0.43073  0.43073  0.00000  0.13853

   Total alpha = 17.00000, Total beta = 17.00000, Total charge = -0.00000

*** Psi4 exiting successfully. Buy a developer a beer!
