                               Psi4 1.2.1 release

  ==> Input File <==

--------------------------------------------------------------------------
set_num_threads(1)
set_memory('5348 MB')

set { scf_mem_safety_factor 0.7 }

set { reference rks }
set { basis cc-pVDZ }

molecule MOL {
    0 1
    noreorient
    nocom
    symmetry c1
    O    1.014300  -0.002300   0.060500
    O    2.462400  -0.107500  -0.002400
    H    0.821200  -0.823600  -0.430600
    H    2.614604  -0.131920   0.961485
}

set optking { frozen_dihedral = (" 3 1 2 4 ") }

energy, wfn = energy('B3LYP-D3', return_wfn=True)

import os
os.chdir(os.environ['HTMD_PSI4_WORKDIR'])

oeprop(wfn, 'DIPOLE', 'QUADRUPOLE', 'MULLIKEN_CHARGES')

with open('psi4out.xyz', 'w') as f:
    f.write('4 ' )
    f.write('%.12f\n' % energy)
    f.write(MOL.save_string_xyz())
--------------------------------------------------------------------------

    Molecular point group: c1

    Geometry (in Angstrom), charge = 0, multiplicity = 1:

       Center              X                  Y                   Z               Mass
    ------------   -----------------  -----------------  -----------------  -----------------
         O            1.014300000000    -0.002300000000     0.060500000000    15.994914619560
         O            2.462400000000    -0.107500000000    -0.002400000000    15.994914619560
         H            0.821200000000    -0.823600000000    -0.430600000000     1.007825032070
         H            2.614604000000    -0.131920000000     0.961485000000     1.007825032070

  Charge       = 0
  Multiplicity = 1
  Basis Set: CC-PVDZ
    Blend: CC-PVDZ
  Basis Set: (CC-PVDZ AUX)
    Blend: CC-PVDZ-JKFIT

    Orbital Energies [Eh]
    ---------------------

    Doubly Occupied:

       1A    -19.187627     2A    -19.187586     3A     -1.111917
       4A     -0.886412     5A     -0.510193     6A     -0.490444
       7A     -0.411432     8A     -0.317208     9A     -0.265276

  @DF-RKS Final Energy:  -151.55032955835955

   => Energetics <=

    Nuclear Repulsion Energy =             36.7993609821545959
    One-Electron Energy =                -281.5787503402721086
    Two-Electron Energy =                 107.6917170238522630
    DFT Exchange-Correlation Energy =     -14.4623371240943168
    Empirical Dispersion Energy =          -0.0003201000000000
    VV10 Nonlocal Energy =                  0.0000000000000000
    Total Energy =                       -151.5503295583595502

  Dipole Moment: [D]
     X:    -0.0703      Y:    -1.4543      Z:     0.8131     Total:     1.6677

  Mulliken Charges: (a.u.)
   Center  Symbol    Alpha    Beta     Spin     Total
       1     O     4.09082  4.09082  0.00000 -0.18165
       2     O     4.09080  4.09080  0.00000 -0.18161
       3     H     0.40918  0.40918  0.00000  0.18165
       4     H     0.40920  0.40920  0.00000  0.18161

   Total alpha =  9.00000, Total beta =  9.00000, Total charge =  0.00000

*** Psi4 exiting successfully. Buy a developer a beer!
