                               Psi4 1.2.1 release

  ==> Input File <==

--------------------------------------------------------------------------
set_num_threads(1)
set_memory('5348 MB')

set { scf_mem_safety_factor 0.7 }

set { reference rks }
set { basis cc-pVDZ }

molecule MOL {
    0 1
    noreorient
    nocom
    symmetry c1
    O    1.014300  -0.002300   0.060500
    O    2.462400  -0.107500  -0.002400
    H    0.821200  -0.823600  -0.430600
    H    2.573710  -0.613250   0.825043
}

set optking { frozen_dihedral = (" 3 1 2 4 ") }

energy, wfn = energy('B3LYP-D3', return_wfn=True)

import os
os.chdir(os.environ['HTMD_PSI4_WORKDIR'])

oeprop(wfn, 'DIPOLE', 'QUADRUPOLE', 'MULLIKEN_CHARGES')

with open('psi4out.xyz', 'w') as f:
    f.write('4 ' )
    f.write('%.12f\n' % energy)
    f.write(MOL.save_string_xyz())
--------------------------------------------------------------------------

    Molecular point group: c1

    Geometry (in Angstrom), charge = 0, multiplicity = 1:

       Center              X                  Y                   Z               Mass
    ------------   -----------------  -----------------  -----------------  -----------------
         O            1.014300000000    -0.002300000000     0.060500000000    15.994914619560
         O            2.462400000000    -0.107500000000    -0.002400000000    15.994914619560
         H            0.821200000000    -0.823600000000    -0.430600000000     1.007825032070
         H            2.573710000000    -0.613250000000     0.825043000000     1.007825032070

  Charge       = 0
  Multiplicity = 1
  Basis Set: CC-PVDZ
    Blend: CC-PVDZ
  Basis Set: (CC-PVDZ AUX)
    Blend: CC-PVDZ-JKFIT

    Orbital Energies [Eh]
    ---------------------

    Doubly Occupied:

       1A    -19.189727     2A    -19.189687     3A     -1.115003
       4A     -0.886759     5A     -0.526782     6A     -0.473576
       7A     -0.419841     8A     -0.291100     9A     -0.290739

  @DF-RKS Final Energy:  -151.54862930652811

   => Energetics <=

    Nuclear Repulsion Energy =             36.8206908791845322
    One-Electron Energy =                -281.5883635564601946
    Two-Electron Energy =                 107.6809311017022281
    DFT Exchange-Correlation Energy =     -14.4616190009546859
    Empirical Dispersion Energy =          -0.0002687300000000
    VV10 Nonlocal Energy =                  0.0000000000000000
    Total Energy =                       -151.5486293065281416

  Dipole Moment: [D]
     X:    -0.1380      Y:    -2.2387      Z:     0.5675     Total:     2.3136

  Mulliken Charges: (a.u.)
   Center  Symbol    Alpha    Beta     Spin     Total
       1     O     4.08822  4.08822  0.00000 -0.17645
       2     O     4.08821  4.08821  0.00000 -0.17641
       3     H     0.41178  0.41178  0.00000  0.17645
       4     H     0.41179  0.41179  0.00000  0.17641

   Total alpha =  9.00000, Total beta =  9.00000, Total charge =  0.00000

*** Psi4 exiting successfully. Buy a developer a beer!
