                               Psi4 1.2.1 release

  ==> Input File <==

--------------------------------------------------------------------------
set_num_threads(1)
set_memory('5348 MB')

set { scf_mem_safety_factor 0.7 }

set { reference rks }
set { basis cc-pVDZ }

molecule MOL {
    0 1
    noreorient
    nocom
    symmetry c1
    O    1.141000   0.017000   0.083000
    C    2.558000   0.086000  -0.005000
    C    3.192000  -0.789000   1.067000
    O    2.254817  -1.044659   2.106084
    H    0.789000   0.590000  -0.620000
    H    2.874000   1.128000   0.115000
    H    2.871000  -0.243000  -1.001000
    H    4.072514  -0.296347   1.491177
    H    3.518788  -1.742834   0.637712
    H    2.709771  -1.603961   2.759601
}

set optking { frozen_dihedral = (" 1 2 3 4 ") }

energy, wfn = energy('B3LYP-D3', return_wfn=True)

import os
os.chdir(os.environ['HTMD_PSI4_WORKDIR'])

oeprop(wfn, 'DIPOLE', 'QUADRUPOLE', 'MULLIKEN_CHARGES')

with open('psi4out.xyz', 'w') as f:
    f.write('10 ' )
    f.write('%.12f\n' % energy)
    f.write(MOL.save_string_xyz())
--------------------------------------------------------------------------

    Molecular point group: c1

    Geometry (in Angstrom), charge = 0, multiplicity = 1:

       Center              X                  Y                   Z               Mass
    ------------   -----------------  -----------------  -----------------  -----------------
         O            1.141000000000     0.017000000000     0.083000000000    15.994914619560
         C            2.558000000000     0.086000000000    -0.005000000000    12.000000000000
         C            3.192000000000    -0.789000000000     1.067000000000    12.000000000000
         O            2.254817000000    -1.044659000000     2.106084000000    15.994914619560
         H            0.789000000000     0.590000000000    -0.620000000000     1.007825032070
         H            2.874000000000     1.128000000000     0.115000000000     1.007825032070
         H            2.871000000000    -0.243000000000    -1.001000000000     1.007825032070
         H            4.072514000000    -0.296347000000     1.491177000000     1.007825032070
         H            3.518788000000    -1.742834000000     0.637712000000     1.007825032070
         H            2.709771000000    -1.603961000000     2.759601000000     1.007825032070

  Charge       = 0
  Multiplicity = 1
  Basis Set: CC-PVDZ
    Blend: CC-PVDZ
  Basis Set: (CC-PVDZ AUX)
    Blend: CC-PVDZ-JKFIT

    Orbital Energies [Eh]
    ---------------------

    Doubly Occupied:

       1A    -19.122466     2A    -19.122409     3A    -10.226060
       4A    -10.225876     5A     -1.016432     6A     -0.994356
       7A     -0.733992     8A     -0.599538     9A     -0.526488
      10A     -0.481811    11A     -0.456495    12A     -0.413641
      13A     -0.394609    14A     -0.328551    15A     -0.322960
      16A     -0.266123    17A     -0.245326

  @DF-RKS Final Energy:  -230.24626557104366

   => Energetics <=

    Nuclear Repulsion Energy =            133.0788645141061863
    One-Electron Energy =                -578.0633690293036580
    Two-Electron Energy =                 239.2821302333451285
    DFT Exchange-Correlation Energy =     -24.5398595391913013
    Empirical Dispersion Energy =          -0.0040317500000000
    VV10 Nonlocal Energy =                  0.0000000000000000
    Total Energy =                       -230.2462655710436650

  Dipole Moment: [D]
     X:     1.9455      Y:     0.2687      Z:    -0.9333     Total:     2.1745

  Mulliken Charges: (a.u.)
   Center  Symbol    Alpha    Beta     Spin     Total
       1     O     4.12938  4.12938  0.00000 -0.25875
       2     C     2.93506  2.93506  0.00000  0.12987
       3     C     2.93516  2.93516  0.00000  0.12968
       4     O     4.12962  4.12962  0.00000 -0.25923
       5     H     0.43160  0.43160  0.00000  0.13681
       6     H     0.50140  0.50140  0.00000 -0.00280
       7     H     0.50254  0.50254  0.00000 -0.00508
       8     H     0.50243  0.50243  0.00000 -0.00485
       9     H     0.50128  0.50128  0.00000 -0.00256
      10     H     0.43154  0.43154  0.00000  0.13691

   Total alpha = 17.00000, Total beta = 17.00000, Total charge = -0.00000

*** Psi4 exiting successfully. Buy a developer a beer!
