                               Psi4 1.2.1 release

  ==> Input File <==

--------------------------------------------------------------------------
set_num_threads(4)
set_memory('3000 MB')

set { scf_mem_safety_factor 0.7 }

set { reference rks }
set { basis 6-31G* }

molecule MOL {
    1 1
    noreorient
    nocom
    symmetry c1
    C   -0.000000  -0.000000  -0.177864
    C    0.036678   1.219374   0.524165
    C    0.031765   1.213120   1.915444
    C    0.000000   0.000000   2.610107
    C   -0.031765  -1.213120   1.915444
    C   -0.036678  -1.219375   0.524165
    C   -0.000000   0.000000  -1.644734
    H    0.018170   2.164705  -0.010854
    H    0.042402   2.152895   2.457886
    H    0.000000   0.000000   3.695756
    H   -0.042402  -2.152895   2.457886
    H   -0.018170  -2.164705  -0.010853
    N   -0.712590  -0.905950  -2.308461
    N    0.712590   0.905950  -2.308460
    H    0.673432   1.006470  -3.315997
    H    1.377190   1.485970  -1.813316
    H   -0.350740  -1.842996  -2.428011
    H   -1.647895  -0.725122  -2.653818
}

set optking { frozen_dihedral = (" 1 7 13 17 ") }

set optking { dynamic_level = 1
 geom_maxiter = 250
 print_trajectory_xyz_file = True }

energy, wfn = optimize('B3LYP-D3', return_wfn=True)

import os
os.chdir(os.environ['HTMD_PSI4_WORKDIR'])

oeprop(wfn, 'DIPOLE', 'QUADRUPOLE', 'MULLIKEN_CHARGES')

with open('psi4out.xyz', 'w') as f:
    f.write('18 ' )
    f.write('%.12f\n' % energy)
    f.write(MOL.save_string_xyz())
--------------------------------------------------------------------------

    Molecular point group: c1
  Charge       = 1
  Multiplicity = 1
  Basis Set: 6-31G*
    Blend: 6-31G*
  Basis Set: (6-31G* AUX)
    Blend: CC-PVDZ-JKFIT
  @DF-RKS Final Energy:  -381.42474862755870
    Total Energy =                       -381.4247486275586994
    Molecular point group: c1
  Basis Set: 6-31G*
    Blend: 6-31G*
  Basis Set: (6-31G* AUX)
    Blend: CC-PVDZ-JKFIT
  Basis Set: 6-31G*
    Blend: 6-31G*
  Basis Set: (6-31G* AUX)
    Blend: CC-PVDZ-JKFIT
  @DF-RKS Final Energy:  -381.43086436844897
    Total Energy =                       -381.4308643684490221
  Basis Set: 6-31G*
    Blend: 6-31G*
  Basis Set: (6-31G* AUX)
    Blend: CC-PVDZ-JKFIT
  Basis Set: 6-31G*
    Blend: 6-31G*
  @DF-RKS Final Energy:  -381.43343798588131
    Total Energy =                       -381.4334379858813122
  @DF-RKS Final Energy:  -381.43470188776541
    Total Energy =                       -381.4347018877653568
  @DF-RKS Final Energy:  -381.43558746033108
    Total Energy =                       -381.4355874603310212
  @DF-RKS Final Energy:  -381.43644525745657
    Total Energy =                       -381.4364452574565689
  @DF-RKS Final Energy:  -381.43328066712292
    Total Energy =                       -381.4332806671229150
  @DF-RKS Final Energy:  -381.43644525745430
    Total Energy =                       -381.4364452574542952
  @DF-RKS Final Energy:  -381.43781773351634
    Total Energy =                       -381.4378177335163400
  @DF-RKS Final Energy:  -381.43954290712935
    Total Energy =                       -381.4395429071293506
  @DF-RKS Final Energy:  -381.44038069562492
    Total Energy =                       -381.4403806956248673
  @DF-RKS Final Energy:  -381.44211877278855
    Total Energy =                       -381.4421187727885467
  @DF-RKS Final Energy:  -381.44635614355252
    Total Energy =                       -381.4463561435524639
  @DF-RKS Final Energy:  -381.44893307495670
    Total Energy =                       -381.4489330749566989
  @DF-RKS Final Energy:  -381.45077182262469
    Total Energy =                       -381.4507718226246311
  @DF-RKS Final Energy:  -381.45220411249335
    Total Energy =                       -381.4522041124933480
  @DF-RKS Final Energy:  -381.45287163562557
    Total Energy =                       -381.4528716356255700
  @DF-RKS Final Energy:  -381.45296365571892
    Total Energy =                       -381.4529636557189747
  @DF-RKS Final Energy:  -381.45299071899541
    Total Energy =                       -381.4529907189954088
  Basis Set: (6-31G* AUX)
    Blend: CC-PVDZ-JKFIT
  Basis Set: 6-31G*
    Blend: 6-31G*
  Basis Set: (6-31G* AUX)
    Blend: CC-PVDZ-JKFIT
  @DF-RKS Final Energy:  -381.45300605430975
    Total Energy =                       -381.4530060543097534
  Basis Set: 6-31G*
    Blend: 6-31G*
  Basis Set: (6-31G* AUX)
    Blend: CC-PVDZ-JKFIT
  Charge       = 1
  Multiplicity = 1
  Basis Set: 6-31G*
    Blend: 6-31G*
  Basis Set: (6-31G* AUX)
    Blend: CC-PVDZ-JKFIT

    Orbital Energies [Eh]
    ---------------------

    Doubly Occupied:

       1A    -14.579706     2A    -14.548902     3A    -10.496641
       4A    -10.373035     5A    -10.360434     6A    -10.355998
       7A    -10.349265     8A    -10.343556     9A    -10.341102
      10A     -1.180878    11A     -1.084486    12A     -1.016059
      13A     -0.929605    14A     -0.904184    15A     -0.842326
      16A     -0.776869    17A     -0.771742    18A     -0.736623
      19A     -0.722488    20A     -0.694611    21A     -0.667952
      22A     -0.626903    23A     -0.605430    24A     -0.581481
      25A     -0.580607    26A     -0.563199    27A     -0.517264
      28A     -0.508119    29A     -0.499151    30A     -0.477074
      31A     -0.415631    32A     -0.407720

  @DF-RKS Final Energy:  -381.45300637801921

   => Energetics <=

    Nuclear Repulsion Energy =            416.2361682589930751
    One-Electron Energy =               -1327.7215581590007787
    Two-Electron Energy =                 574.4368901504328733
    DFT Exchange-Correlation Energy =     -44.3928418984443027
    Empirical Dispersion Energy =          -0.0116647300000000
    VV10 Nonlocal Energy =                  0.0000000000000000
    Total Energy =                       -381.4530063780191540
    Molecular point group: c1
  Basis Set: 6-31G*
    Blend: 6-31G*
  Basis Set: (6-31G* AUX)
    Blend: CC-PVDZ-JKFIT

  -Total Gradient:
     Atom            X                  Y                   Z
    ------   -----------------  -----------------  -----------------
       1       -0.011501588084     0.001074938880     0.000097411858
       2        0.000045863862     0.000008450135     0.000042635215
       3       -0.000036492388    -0.000027747992     0.000020008524
       4        0.000024242079     0.000032305113    -0.000025679206
       5        0.000006937532     0.000007765170    -0.000014769361
       6        0.000016148501    -0.000017170396     0.000054965621
       7        0.018571802150     0.000627803443    -0.004588750135
       8       -0.000019150618    -0.000013608670    -0.000009930472
       9       -0.000000675278    -0.000007590916     0.000000675823
      10        0.000002756980     0.000001274962    -0.000003890873
      11       -0.000007917980     0.000013837359    -0.000006297101
      12        0.000010476926     0.000008521322    -0.000005336389
      13       -0.010229159208    -0.008831737800     0.018046099425
      14       -0.000030386508     0.000037816174    -0.000015513255
      15       -0.000022078353    -0.000020718858     0.000026164000
      16        0.000002521633    -0.000104243694    -0.000031242215
      17        0.003188155039     0.007210747849    -0.013628094354
      18       -0.000027151364    -0.000007145348     0.000021907422

  **** Optimization is complete! (in 14 steps) ****
    Final optimized geometry and variables:
    Molecular point group: c1

    Geometry (in Angstrom), charge = 1, multiplicity = 1:

    C            0.043778715551    -0.017826677999    -0.150973176378
    C            0.558766198818     1.096534370755     0.550525725366
    C            0.532279334863     1.111883086061     1.937510923569
    C            0.005030076875     0.018335559360     2.637448815871
    C           -0.489054386776    -1.095720137489     1.951168083426
    C           -0.466525471063    -1.124496924802     0.561781134951
    C            0.027965353665    -0.041717457792    -1.601676949860
    H            1.020714278150     1.921815938962     0.014952064776
    H            0.934845810867     1.962316958880     2.477910243846
    H           -0.014646884294     0.034795339705     3.723001378910
    H           -0.899194149823    -1.936642217085     2.500741896721
    H           -0.875364750379    -1.969541067788     0.019414872362
    N           -0.093184141455    -1.242986858996    -2.258113677361
    N           -0.117469272752     1.084869637811    -2.287363489343
    H           -0.063355254322     1.111403420169    -3.299663886472
    H           -0.319547403523     1.959753251017    -1.816514719135
    H            0.759769602143    -1.794489797267    -2.339670554483
    H           -0.492820656545    -1.153965423503    -3.191993686767

  Dipole Moment: [D]
     X:     0.4276      Y:     0.8719      Z:    -5.5371     Total:     5.6217

  Mulliken Charges: (a.u.)
   Center  Symbol    Alpha    Beta     Spin     Total
       1     C     2.94825  2.94825  0.00000  0.10350
       2     C     3.08467  3.08467  0.00000 -0.16933
       3     C     3.06270  3.06270  0.00000 -0.12541
       4     C     3.04926  3.04926  0.00000 -0.09852
       5     C     3.06255  3.06255  0.00000 -0.12509
       6     C     3.06992  3.06992  0.00000 -0.13983
       7     C     2.76408  2.76408  0.00000  0.47184
       8     H     0.41571  0.41571  0.00000  0.16857
       9     H     0.40468  0.40468  0.00000  0.19063
      10     H     0.40216  0.40216  0.00000  0.19568
      11     H     0.40408  0.40408  0.00000  0.19183
      12     H     0.40213  0.40213  0.00000  0.19575
      13     N     3.85900  3.85900  0.00000 -0.71800
      14     N     3.84580  3.84580  0.00000 -0.69160
      15     H     0.30446  0.30446  0.00000  0.39108
      16     H     0.29941  0.29941  0.00000  0.40118
      17     H     0.30329  0.30329  0.00000  0.39341
      18     H     0.31785  0.31785  0.00000  0.36431

   Total alpha = 32.00000, Total beta = 32.00000, Total charge =  1.00000

*** Psi4 exiting successfully. Buy a developer a beer!
