                               Psi4 1.2.1 release

  ==> Input File <==

--------------------------------------------------------------------------
set_num_threads(4)
set_memory('3000 MB')

set { scf_mem_safety_factor 0.7 }

set { reference rks }
set { basis 6-31G* }

molecule MOL {
    1 1
    noreorient
    nocom
    symmetry c1
    C   -0.000000  -0.000000  -0.177864
    C    0.036678   1.219374   0.524165
    C    0.031765   1.213120   1.915444
    C    0.000000   0.000000   2.610107
    C   -0.031765  -1.213120   1.915444
    C   -0.036678  -1.219375   0.524165
    C   -0.000000   0.000000  -1.644734
    H    0.018170   2.164705  -0.010854
    H    0.042402   2.152895   2.457886
    H    0.000000   0.000000   3.695756
    H   -0.042402  -2.152895   2.457886
    H   -0.018170  -2.164705  -0.010853
    N    0.361476  -1.094470  -2.308461
    N   -0.361476   1.094470  -2.308460
    H   -0.466897   1.117363  -3.315997
    H   -0.477788   1.968877  -1.813316
    H    0.477788  -1.968877  -1.813317
    H    0.466897  -1.117362  -3.315997
}

set optking { frozen_dihedral = (" 2 1 7 13 ") }

set optking { dynamic_level = 1
 geom_maxiter = 250
 print_trajectory_xyz_file = True }

energy, wfn = optimize('B3LYP-D3', return_wfn=True)

import os
os.chdir(os.environ['HTMD_PSI4_WORKDIR'])

oeprop(wfn, 'DIPOLE', 'QUADRUPOLE', 'MULLIKEN_CHARGES')

with open('psi4out.xyz', 'w') as f:
    f.write('18 ' )
    f.write('%.12f\n' % energy)
    f.write(MOL.save_string_xyz())
--------------------------------------------------------------------------

    Molecular point group: c1
  Charge       = 1
  Multiplicity = 1
  Basis Set: 6-31G*
    Blend: 6-31G*
  Basis Set: (6-31G* AUX)
    Blend: CC-PVDZ-JKFIT
  @DF-RKS Final Energy:  -381.46358802801359
    Total Energy =                       -381.4635880280136462
    Molecular point group: c1
  Basis Set: 6-31G*
    Blend: 6-31G*
  Basis Set: (6-31G* AUX)
    Blend: CC-PVDZ-JKFIT
  Basis Set: 6-31G*
    Blend: 6-31G*
  Basis Set: (6-31G* AUX)
    Blend: CC-PVDZ-JKFIT
  @DF-RKS Final Energy:  -381.46666310065490
    Total Energy =                       -381.4666631006548982
  Basis Set: 6-31G*
    Blend: 6-31G*
  Basis Set: (6-31G* AUX)
    Blend: CC-PVDZ-JKFIT
  Basis Set: 6-31G*
    Blend: 6-31G*
  @DF-RKS Final Energy:  -381.46837801437943
    Total Energy =                       -381.4683780143794252
  @DF-RKS Final Energy:  -381.46666310065535
    Total Energy =                       -381.4666631006552961
  @DF-RKS Final Energy:  -381.46808063529812
    Total Energy =                       -381.4680806352981222
  @DF-RKS Final Energy:  -381.46884319715048
    Total Energy =                       -381.4688431971504770
  @DF-RKS Final Energy:  -381.46920629726065
    Total Energy =                       -381.4692062972606550
  @DF-RKS Final Energy:  -381.46926422767973
    Total Energy =                       -381.4692642276797301
  @DF-RKS Final Energy:  -381.46927235783801
    Total Energy =                       -381.4692723578380082
  Basis Set: (6-31G* AUX)
    Blend: CC-PVDZ-JKFIT
  Basis Set: 6-31G*
    Blend: 6-31G*
  Basis Set: (6-31G* AUX)
    Blend: CC-PVDZ-JKFIT
  @DF-RKS Final Energy:  -381.46927575749811
    Total Energy =                       -381.4692757574981101
  Basis Set: 6-31G*
    Blend: 6-31G*
  Basis Set: (6-31G* AUX)
    Blend: CC-PVDZ-JKFIT
  Charge       = 1
  Multiplicity = 1
  Basis Set: 6-31G*
    Blend: 6-31G*
  Basis Set: (6-31G* AUX)
    Blend: CC-PVDZ-JKFIT

    Orbital Energies [Eh]
    ---------------------

    Doubly Occupied:

       1A    -14.566398     2A    -14.566151     3A    -10.497133
       4A    -10.375242     5A    -10.358566     6A    -10.358349
       7A    -10.345280     8A    -10.341989     9A    -10.341867
      10A     -1.183015    11A     -1.090116    12A     -1.015774
      13A     -0.927874    14A     -0.904127    15A     -0.846437
      16A     -0.785672    17A     -0.775214    18A     -0.737884
      19A     -0.735545    20A     -0.688693    21A     -0.669284
      22A     -0.628769    23A     -0.613719    24A     -0.592686
      25A     -0.580776    26A     -0.574786    27A     -0.518406
      28A     -0.507885    29A     -0.499695    30A     -0.471893
      31A     -0.413006    32A     -0.407226

  @DF-RKS Final Energy:  -381.46927592628055

   => Energetics <=

    Nuclear Repulsion Energy =            416.8666655941406702
    One-Electron Energy =               -1328.8849991032152502
    Two-Electron Energy =                 574.9673553726619275
    DFT Exchange-Correlation Energy =     -44.4065704998678328
    Empirical Dispersion Energy =          -0.0117272900000000
    VV10 Nonlocal Energy =                  0.0000000000000000
    Total Energy =                       -381.4692759262805453
    Molecular point group: c1
  Basis Set: 6-31G*
    Blend: 6-31G*
  Basis Set: (6-31G* AUX)
    Blend: CC-PVDZ-JKFIT

  -Total Gradient:
     Atom            X                  Y                   Z
    ------   -----------------  -----------------  -----------------
       1        0.003714804902    -0.000731871001    -0.000088355590
       2       -0.003632091519     0.000128531254     0.000067702470
       3       -0.000001431418     0.000001636192    -0.000004591324
       4        0.000006557855    -0.000001795377    -0.000005703972
       5        0.000002155930    -0.000004360170    -0.000001801874
       6       -0.000008824044     0.000000076573    -0.000000076035
       7        0.003590364945     0.001809766878    -0.000040236692
       8       -0.000007879651    -0.000001505529    -0.000001846941
       9        0.000002383847    -0.000001179941    -0.000000095117
      10       -0.000002968894    -0.000000154145    -0.000000279862
      11       -0.000000837331     0.000001080955    -0.000000660314
      12       -0.000003343050     0.000002449893     0.000004359364
      13       -0.003620084118    -0.001216660624     0.000071859375
      14       -0.000045484137     0.000019663164     0.000010804967
      15        0.000016527832    -0.000002949376     0.000000574838
      16        0.000013809827    -0.000009323397    -0.000010426056
      17       -0.000012866583     0.000007498143    -0.000017716983
      18       -0.000018350364     0.000009693879     0.000002862706

  **** Optimization is complete! (in 8 steps) ****
    Final optimized geometry and variables:
    Molecular point group: c1

    Geometry (in Angstrom), charge = 1, multiplicity = 1:

    C            0.054004873636     0.000984903987    -0.176833019803
    C            0.109869270860     1.216575195699     0.533419269807
    C            0.081032624805     1.212798785283     1.923347918531
    C           -0.015368622630     0.003392843550     2.618390396888
    C           -0.086732983596    -1.206160930512     1.921310028329
    C           -0.059482810676    -1.211959575253     0.530983564399
    C            0.025064363138     0.001533206698    -1.643061008007
    H            0.241972513231     2.160378586015     0.012000900389
    H            0.143470206342     2.150913377336     2.465032155433
    H           -0.039100625426     0.004118760884     3.703764789231
    H           -0.181133888679    -2.142921036552     2.460733154920
    H           -0.179920259470    -2.154960507787     0.006150476734
    N            0.367236599548    -1.090636816919    -2.325148318000
    N           -0.393915942374     1.076252158885    -2.308388667192
    H           -0.362292396141     1.137317445232    -3.318915967074
    H           -0.847335810790     1.836562412075    -1.820575844771
    H            0.868706803376    -1.840956593981    -1.869425490493
    H            0.273926084845    -1.153232214638    -3.331784339321

  Dipole Moment: [D]
     X:    -0.0324      Y:     0.0026      Z:    -5.5788     Total:     5.5789

  Mulliken Charges: (a.u.)
   Center  Symbol    Alpha    Beta     Spin     Total
       1     C     2.94354  2.94354  0.00000  0.11292
       2     C     3.08707  3.08707  0.00000 -0.17414
       3     C     3.06226  3.06226  0.00000 -0.12452
       4     C     3.05124  3.05124  0.00000 -0.10248
       5     C     3.06154  3.06154  0.00000 -0.12308
       6     C     3.08380  3.08380  0.00000 -0.16760
       7     C     2.71257  2.71257  0.00000  0.57486
       8     H     0.41591  0.41591  0.00000  0.16817
       9     H     0.40512  0.40512  0.00000  0.18976
      10     H     0.40316  0.40316  0.00000  0.19368
      11     H     0.40509  0.40509  0.00000  0.18982
      12     H     0.41644  0.41644  0.00000  0.16712
      13     N     3.86979  3.86979  0.00000 -0.73959
      14     N     3.86912  3.86912  0.00000 -0.73823
      15     H     0.30587  0.30587  0.00000  0.38826
      16     H     0.30065  0.30065  0.00000  0.39870
      17     H     0.30091  0.30091  0.00000  0.39819
      18     H     0.30591  0.30591  0.00000  0.38818

   Total alpha = 32.00000, Total beta = 32.00000, Total charge =  1.00000

*** Psi4 exiting successfully. Buy a developer a beer!
