                               Psi4 1.2.1 release

  ==> Input File <==

--------------------------------------------------------------------------
set_num_threads(4)
set_memory('3000 MB')

set { scf_mem_safety_factor 0.7 }

set { reference rks }
set { basis 6-31G* }

molecule MOL {
    1 1
    noreorient
    nocom
    symmetry c1
    C   -0.000000  -0.000000  -0.177864
    C    0.036678   1.219374   0.524165
    C    0.031765   1.213120   1.915444
    C    0.000000   0.000000   2.610107
    C   -0.031765  -1.213120   1.915444
    C   -0.036678  -1.219375   0.524165
    C   -0.000000   0.000000  -1.644734
    H    0.018170   2.164705  -0.010854
    H    0.042402   2.152895   2.457886
    H    0.000000   0.000000   3.695756
    H   -0.042402  -2.152895   2.457886
    H   -0.018170  -2.164705  -0.010853
    N   -0.767101  -0.860283  -2.308461
    N    0.767101   0.860283  -2.308460
    H    0.734216   0.963026  -3.315997
    H    1.466204   1.398215  -1.813316
    H   -1.466204  -1.398215  -1.813317
    H   -0.734216  -0.963025  -3.315997
}

set optking { frozen_dihedral = (" 2 1 7 13 ") }

set optking { dynamic_level = 1
 geom_maxiter = 250
 print_trajectory_xyz_file = True }

energy, wfn = optimize('B3LYP-D3', return_wfn=True)

import os
os.chdir(os.environ['HTMD_PSI4_WORKDIR'])

oeprop(wfn, 'DIPOLE', 'QUADRUPOLE', 'MULLIKEN_CHARGES')

with open('psi4out.xyz', 'w') as f:
    f.write('18 ' )
    f.write('%.12f\n' % energy)
    f.write(MOL.save_string_xyz())
--------------------------------------------------------------------------

    Molecular point group: c1
  Charge       = 1
  Multiplicity = 1
  Basis Set: 6-31G*
    Blend: 6-31G*
  Basis Set: (6-31G* AUX)
    Blend: CC-PVDZ-JKFIT
  @DF-RKS Final Energy:  -381.47041208558045
    Total Energy =                       -381.4704120855804490
    Molecular point group: c1
  Basis Set: 6-31G*
    Blend: 6-31G*
  Basis Set: (6-31G* AUX)
    Blend: CC-PVDZ-JKFIT
  Basis Set: 6-31G*
    Blend: 6-31G*
  Basis Set: (6-31G* AUX)
    Blend: CC-PVDZ-JKFIT
  @DF-RKS Final Energy:  -381.47043420088465
    Total Energy =                       -381.4704342008846538
  Basis Set: 6-31G*
    Blend: 6-31G*
  Basis Set: (6-31G* AUX)
    Blend: CC-PVDZ-JKFIT
  Basis Set: 6-31G*
    Blend: 6-31G*
  Basis Set: (6-31G* AUX)
    Blend: CC-PVDZ-JKFIT
  @DF-RKS Final Energy:  -381.47044845551022
    Total Energy =                       -381.4704484555102795
  Basis Set: 6-31G*
    Blend: 6-31G*
  Basis Set: (6-31G* AUX)
    Blend: CC-PVDZ-JKFIT
  Charge       = 1
  Multiplicity = 1
  Basis Set: 6-31G*
    Blend: 6-31G*
  Basis Set: (6-31G* AUX)
    Blend: CC-PVDZ-JKFIT

    Orbital Energies [Eh]
    ---------------------

    Doubly Occupied:

       1A    -14.568541     2A    -14.568492     3A    -10.497351
       4A    -10.372760     5A    -10.355664     6A    -10.355550
       7A    -10.342365     8A    -10.340001     9A    -10.339938
      10A     -1.184154    11A     -1.092454    12A     -1.013897
      13A     -0.926285    14A     -0.901721    15A     -0.845257
      16A     -0.785795    17A     -0.772935    18A     -0.742599
      19A     -0.732401    20A     -0.688916    21A     -0.668976
      22A     -0.624767    23A     -0.617895    24A     -0.585913
      25A     -0.578597    26A     -0.572434    27A     -0.518252
      28A     -0.504878    29A     -0.497654    30A     -0.473238
      31A     -0.411283    32A     -0.405261

  @DF-RKS Final Energy:  -381.47044908091260

   => Energetics <=

    Nuclear Repulsion Energy =            416.9181713060988272
    One-Electron Energy =               -1329.0568928337484067
    Two-Electron Energy =                 575.0861105526570327
    DFT Exchange-Correlation Energy =     -44.4058782159201755
    Empirical Dispersion Energy =          -0.0119598900000000
    VV10 Nonlocal Energy =                  0.0000000000000000
    Total Energy =                       -381.4704490809126582
    Molecular point group: c1
  Basis Set: 6-31G*
    Blend: 6-31G*
  Basis Set: (6-31G* AUX)
    Blend: CC-PVDZ-JKFIT

  -Total Gradient:
     Atom            X                  Y                   Z
    ------   -----------------  -----------------  -----------------
       1        0.000866314742     0.000279076959    -0.000019065902
       2       -0.000820799006     0.000039040022     0.000015735943
       3        0.000019359437    -0.000011329081    -0.000004879604
       4       -0.000023843103    -0.000001428599    -0.000006266602
       5       -0.000003261087     0.000002745422     0.000004117952
       6       -0.000014673427    -0.000036129755     0.000033104958
       7        0.000645166151    -0.000901106605     0.000007550878
       8        0.000029739800    -0.000015562328    -0.000020908615
       9       -0.000010508629     0.000000049669    -0.000000059227
      10        0.000008474515     0.000001438362    -0.000003996482
      11        0.000011926502     0.000001659829    -0.000001551773
      12        0.000030272032     0.000011274733     0.000006485219
      13       -0.000651475362     0.000563018576    -0.000026691172
      14       -0.000058450070     0.000013073268     0.000000044357
      15       -0.000002096084     0.000004958167    -0.000001232138
      16       -0.000014000654     0.000000023853     0.000013313681
      17       -0.000005258711     0.000036236478    -0.000013391055
      18       -0.000007447223     0.000010189252    -0.000002391613

  **** Optimization is complete! (in 4 steps) ****
    Final optimized geometry and variables:
    Molecular point group: c1

    Geometry (in Angstrom), charge = 1, multiplicity = 1:

    C            0.012791944235    -0.002661009042    -0.177899345040
    C            0.047669388007     1.217705581104     0.521701386838
    C            0.033200216009     1.212448291808     1.913156216772
    C           -0.007223014069    -0.000001738799     2.608427794792
    C           -0.039599953380    -1.213846879407     1.914958816730
    C           -0.037174069300    -1.221525063359     0.523535018354
    C            0.007604376805    -0.002428743819    -1.645330251388
    H            0.040126386127     2.161454150835    -0.016338950228
    H            0.043056700264     2.152578751797     2.455041515750
    H           -0.014095219605     0.001038003016     3.694056877238
    H           -0.058028745505    -2.152906613591     2.458461857908
    H           -0.024557708941    -2.166337833520    -0.012667782897
    N           -0.759194170193    -0.865759825169    -2.304380611474
    N            0.759536507899     0.870315900757    -2.309223006557
    H            0.721230487212     0.977761965764    -3.316202855244
    H            1.450092688946     1.418261593172    -1.812776582106
    H           -1.441422199045    -1.417903979813    -1.801213744634
    H           -0.734013615467    -0.968192551732    -3.312306354816

  Dipole Moment: [D]
     X:    -0.0051      Y:     0.0024      Z:    -5.7758     Total:     5.7758

  Mulliken Charges: (a.u.)
   Center  Symbol    Alpha    Beta     Spin     Total
       1     C     2.96010  2.96010  0.00000  0.07979
       2     C     3.08082  3.08082  0.00000 -0.16165
       3     C     3.06244  3.06244  0.00000 -0.12488
       4     C     3.05158  3.05158  0.00000 -0.10316
       5     C     3.06265  3.06265  0.00000 -0.12529
       6     C     3.08166  3.08166  0.00000 -0.16332
       7     C     2.72409  2.72409  0.00000  0.55181
       8     H     0.41402  0.41402  0.00000  0.17197
       9     H     0.40554  0.40554  0.00000  0.18892
      10     H     0.40406  0.40406  0.00000  0.19187
      11     H     0.40554  0.40554  0.00000  0.18892
      12     H     0.41392  0.41392  0.00000  0.17215
      13     N     3.86159  3.86159  0.00000 -0.72319
      14     N     3.86195  3.86195  0.00000 -0.72390
      15     H     0.30566  0.30566  0.00000  0.38867
      16     H     0.29937  0.29937  0.00000  0.40126
      17     H     0.29933  0.29933  0.00000  0.40134
      18     H     0.30566  0.30566  0.00000  0.38868

   Total alpha = 32.00000, Total beta = 32.00000, Total charge =  1.00000

*** Psi4 exiting successfully. Buy a developer a beer!
