                               Psi4 1.2.1 release

  ==> Input File <==

--------------------------------------------------------------------------
set_num_threads(4)
set_memory('3000 MB')

set { scf_mem_safety_factor 0.7 }

set { reference rks }
set { basis 6-31G* }

molecule MOL {
    1 1
    noreorient
    nocom
    symmetry c1
    C   -0.000000  -0.000000  -0.177864
    C    0.036678   1.219374   0.524165
    C    0.031765   1.213120   1.915444
    C    0.000000   0.000000   2.610107
    C   -0.031765  -1.213120   1.915444
    C   -0.036678  -1.219375   0.524165
    C   -0.000000   0.000000  -1.644734
    H    0.018170   2.164705  -0.010854
    H    0.042402   2.152895   2.457886
    H    0.000000   0.000000   3.695756
    H   -0.042402  -2.152895   2.457886
    H   -0.018170  -2.164705  -0.010853
    N   -0.712590  -0.905950  -2.308461
    N    0.712590   0.905950  -2.308460
    H    0.673432   1.006470  -3.315997
    H    1.377190   1.485970  -1.813316
    H   -1.444347  -0.607693  -2.940013
    H   -0.516849  -1.899232  -2.265536
}

set optking { frozen_dihedral = (" 1 7 13 17 ") }

set optking { dynamic_level = 1
 geom_maxiter = 250
 print_trajectory_xyz_file = True }

energy, wfn = optimize('B3LYP-D3', return_wfn=True)

import os
os.chdir(os.environ['HTMD_PSI4_WORKDIR'])

oeprop(wfn, 'DIPOLE', 'QUADRUPOLE', 'MULLIKEN_CHARGES')

with open('psi4out.xyz', 'w') as f:
    f.write('18 ' )
    f.write('%.12f\n' % energy)
    f.write(MOL.save_string_xyz())
--------------------------------------------------------------------------

    Molecular point group: c1
  Charge       = 1
  Multiplicity = 1
  Basis Set: 6-31G*
    Blend: 6-31G*
  Basis Set: (6-31G* AUX)
    Blend: CC-PVDZ-JKFIT
  @DF-RKS Final Energy:  -381.43247534177942
    Total Energy =                       -381.4324753417794795
    Molecular point group: c1
  Basis Set: 6-31G*
    Blend: 6-31G*
  Basis Set: (6-31G* AUX)
    Blend: CC-PVDZ-JKFIT
  Basis Set: 6-31G*
    Blend: 6-31G*
  Basis Set: (6-31G* AUX)
    Blend: CC-PVDZ-JKFIT
  @DF-RKS Final Energy:  -381.44162303758935
    Total Energy =                       -381.4416230375892951
  Basis Set: 6-31G*
    Blend: 6-31G*
  Basis Set: (6-31G* AUX)
    Blend: CC-PVDZ-JKFIT
  Basis Set: 6-31G*
    Blend: 6-31G*
  @DF-RKS Final Energy:  -381.44761002387952
    Total Energy =                       -381.4476100238795766
  @DF-RKS Final Energy:  -381.44162303758810
    Total Energy =                       -381.4416230375881014
  @DF-RKS Final Energy:  -381.44519267820129
    Total Energy =                       -381.4451926782012947
  @DF-RKS Final Energy:  -381.44800535291898
    Total Energy =                       -381.4480053529189831
  @DF-RKS Final Energy:  -381.45048768428705
    Total Energy =                       -381.4504876842870544
  @DF-RKS Final Energy:  -381.45252868611431
    Total Energy =                       -381.4525286861143059
  @DF-RKS Final Energy:  -381.45398069568608
    Total Energy =                       -381.4539806956860843
  @DF-RKS Final Energy:  -381.45471917608643
    Total Energy =                       -381.4547191760864280
  @DF-RKS Final Energy:  -381.45486279571088
    Total Energy =                       -381.4548627957108806
  @DF-RKS Final Energy:  -381.45488415578404
    Total Energy =                       -381.4548841557840433
  @DF-RKS Final Energy:  -381.45488848282815
    Total Energy =                       -381.4548884828282098
  @DF-RKS Final Energy:  -381.45415048786941
    Total Energy =                       -381.4541504878693559
  @DF-RKS Final Energy:  -381.45469343610216
    Total Energy =                       -381.4546934361022181
  Basis Set: (6-31G* AUX)
    Blend: CC-PVDZ-JKFIT
  Basis Set: 6-31G*
    Blend: 6-31G*
  Basis Set: (6-31G* AUX)
    Blend: CC-PVDZ-JKFIT
  @DF-RKS Final Energy:  -381.45488848282611
    Total Energy =                       -381.4548884828261635
  Basis Set: 6-31G*
    Blend: 6-31G*
  Basis Set: (6-31G* AUX)
    Blend: CC-PVDZ-JKFIT
  Charge       = 1
  Multiplicity = 1
  Basis Set: 6-31G*
    Blend: 6-31G*
  Basis Set: (6-31G* AUX)
    Blend: CC-PVDZ-JKFIT

    Orbital Energies [Eh]
    ---------------------

    Doubly Occupied:

       1A    -14.576627     2A    -14.552490     3A    -10.501993
       4A    -10.380809     5A    -10.363718     6A    -10.362749
       7A    -10.348757     8A    -10.346102     9A    -10.345754
      10A     -1.184565    11A     -1.089952    12A     -1.019955
      13A     -0.930647    14A     -0.908419    15A     -0.845716
      16A     -0.786519    17A     -0.776020    18A     -0.740003
      19A     -0.728068    20A     -0.675377    21A     -0.672976
      22A     -0.636573    23A     -0.611284    24A     -0.597931
      25A     -0.581771    26A     -0.578983    27A     -0.520312
      28A     -0.513633    29A     -0.503990    30A     -0.473076
      31A     -0.415160    32A     -0.411248

  @DF-RKS Final Energy:  -381.45488943839160

   => Energetics <=

    Nuclear Repulsion Energy =            416.3823509510017402
    One-Electron Energy =               -1327.7697034841671666
    Two-Electron Energy =                 574.3423283793819110
    DFT Exchange-Correlation Energy =     -44.3981042746081087
    Empirical Dispersion Energy =          -0.0117610100000000
    VV10 Nonlocal Energy =                  0.0000000000000000
    Total Energy =                       -381.4548894383916036
    Molecular point group: c1
  Basis Set: 6-31G*
    Blend: 6-31G*
  Basis Set: (6-31G* AUX)
    Blend: CC-PVDZ-JKFIT

  -Total Gradient:
     Atom            X                  Y                   Z
    ------   -----------------  -----------------  -----------------
       1       -0.008296818290     0.005636847992    -0.000288400870
       2        0.000010375217    -0.000016699896     0.000039893750
       3        0.000015712546     0.000022916264    -0.000016248101
       4       -0.000000754440    -0.000014029166     0.000009840621
       5        0.000009586746    -0.000006269105    -0.000006452919
       6       -0.000030798508    -0.000005158650     0.000029482860
       7        0.009878943410    -0.009161417631     0.003739663156
       8        0.000005299163     0.000012532617     0.000028850022
       9        0.000008761702    -0.000004324799    -0.000002677956
      10       -0.000003263528     0.000001595613     0.000001099346
      11        0.000000786670    -0.000007116528    -0.000001165130
      12       -0.000002104800     0.000004921656     0.000030905699
      13        0.007802583711     0.004900803905    -0.013339979923
      14       -0.000058766437    -0.000004908521    -0.000007693164
      15        0.000019414222    -0.000048902883     0.000000790638
      16       -0.000001747872    -0.000015148661    -0.000035163406
      17       -0.009398853394    -0.001329973504     0.009860170434
      18        0.000040519888     0.000042638541    -0.000060684701

  **** Optimization is complete! (in 2 steps) ****
    Final optimized geometry and variables:
    Molecular point group: c1

    Geometry (in Angstrom), charge = 1, multiplicity = 1:

    C            0.069647499071    -0.026342636633    -0.197743340608
    C            0.101336609781     1.192065763846     0.510067383655
    C            0.042659270018     1.187025609424     1.899547682634
    C           -0.019245145955    -0.023601158586     2.595938630518
    C           -0.034612684743    -1.236787969459     1.900750104196
    C            0.001628403316    -1.242633122561     0.511183431090
    C            0.097828247714    -0.027130423526    -1.662994389889
    H            0.104051544593     2.143813588899    -0.013286337232
    H            0.037903316411     2.128530855648     2.439004951559
    H           -0.057805287311    -0.021555972042     3.680821587643
    H           -0.069026150849    -2.176688109629     2.441791617771
    H            0.030140364870    -2.195851354053    -0.010400152858
    N           -0.536110845277    -0.980300825674    -2.399199391758
    N            0.653518248484     0.973791738063    -2.326292852396
    H            0.674089667468     0.984714749503    -3.340326917387
    H            1.180347230547     1.692235613574    -1.846608975918
    H           -1.256595503260    -0.658403996888    -3.041638290584
    H           -0.930322797318    -1.727411727655    -1.835755141857

  Dipole Moment: [D]
     X:    -0.4206      Y:     0.8916      Z:    -4.7162     Total:     4.8181

  Mulliken Charges: (a.u.)
   Center  Symbol    Alpha    Beta     Spin     Total
       1     C     2.93788  2.93788  0.00000  0.12424
       2     C     3.08426  3.08426  0.00000 -0.16852
       3     C     3.06179  3.06179  0.00000 -0.12358
       4     C     3.05097  3.05097  0.00000 -0.10194
       5     C     3.06214  3.06214  0.00000 -0.12428
       6     C     3.08819  3.08819  0.00000 -0.17637
       7     C     2.75443  2.75443  0.00000  0.49115
       8     H     0.41664  0.41664  0.00000  0.16672
       9     H     0.40418  0.40418  0.00000  0.19165
      10     H     0.40229  0.40229  0.00000  0.19543
      11     H     0.40379  0.40379  0.00000  0.19241
      12     H     0.41161  0.41161  0.00000  0.17678
      13     N     3.85960  3.85960  0.00000 -0.71921
      14     N     3.85010  3.85010  0.00000 -0.70019
      15     H     0.29953  0.29953  0.00000  0.40093
      16     H     0.29875  0.29875  0.00000  0.40249
      17     H     0.30418  0.30418  0.00000  0.39164
      18     H     0.30968  0.30968  0.00000  0.38064

   Total alpha = 32.00000, Total beta = 32.00000, Total charge =  1.00000

*** Psi4 exiting successfully. Buy a developer a beer!
