                               Psi4 1.2.1 release

  ==> Input File <==

--------------------------------------------------------------------------
set_num_threads(4)
set_memory('3000 MB')

set { scf_mem_safety_factor 0.7 }

set { reference rks }
set { basis 6-31G* }

molecule MOL {
    1 1
    noreorient
    nocom
    symmetry c1
    C   -0.000000  -0.000000  -0.177864
    C    0.036678   1.219374   0.524165
    C    0.031765   1.213120   1.915444
    C    0.000000   0.000000   2.610107
    C   -0.031765  -1.213120   1.915444
    C   -0.036678  -1.219375   0.524165
    C   -0.000000   0.000000  -1.644734
    H    0.018170   2.164705  -0.010854
    H    0.042402   2.152895   2.457886
    H    0.000000   0.000000   3.695756
    H   -0.042402  -2.152895   2.457886
    H   -0.018170  -2.164705  -0.010853
    N    0.546037  -1.015073  -2.308461
    N   -0.546037   1.015073  -2.308460
    H   -0.653831   1.019312  -3.315997
    H   -0.812421   1.855998  -1.813316
    H    0.812421  -1.855998  -1.813317
    H    0.653831  -1.019311  -3.315997
}

set optking { frozen_dihedral = (" 2 1 7 13 ") }

set optking { dynamic_level = 1
 geom_maxiter = 250
 print_trajectory_xyz_file = True }

energy, wfn = optimize('B3LYP-D3', return_wfn=True)

import os
os.chdir(os.environ['HTMD_PSI4_WORKDIR'])

oeprop(wfn, 'DIPOLE', 'QUADRUPOLE', 'MULLIKEN_CHARGES')

with open('psi4out.xyz', 'w') as f:
    f.write('18 ' )
    f.write('%.12f\n' % energy)
    f.write(MOL.save_string_xyz())
--------------------------------------------------------------------------

    Molecular point group: c1
  Charge       = 1
  Multiplicity = 1
  Basis Set: 6-31G*
    Blend: 6-31G*
  Basis Set: (6-31G* AUX)
    Blend: CC-PVDZ-JKFIT
  @DF-RKS Final Energy:  -381.46465686018746
    Total Energy =                       -381.4646568601874037
    Molecular point group: c1
  Basis Set: 6-31G*
    Blend: 6-31G*
  Basis Set: (6-31G* AUX)
    Blend: CC-PVDZ-JKFIT
  Basis Set: 6-31G*
    Blend: 6-31G*
  Basis Set: (6-31G* AUX)
    Blend: CC-PVDZ-JKFIT
  @DF-RKS Final Energy:  -381.46465686018649
    Total Energy =                       -381.4646568601864374
  Basis Set: 6-31G*
    Blend: 6-31G*
  Basis Set: (6-31G* AUX)
    Blend: CC-PVDZ-JKFIT
  Basis Set: 6-31G*
    Blend: 6-31G*
  @DF-RKS Final Energy:  -381.46681304437777
    Total Energy =                       -381.4668130443777727
  @DF-RKS Final Energy:  -381.46833621747658
    Total Energy =                       -381.4683362174765762
  @DF-RKS Final Energy:  -381.46943430660451
    Total Energy =                       -381.4694343066044553
  @DF-RKS Final Energy:  -381.47009216205970
    Total Energy =                       -381.4700921620597001
  @DF-RKS Final Energy:  -381.47029283388093
    Total Energy =                       -381.4702928338809897
  Basis Set: (6-31G* AUX)
    Blend: CC-PVDZ-JKFIT
  Basis Set: 6-31G*
    Blend: 6-31G*
  Basis Set: (6-31G* AUX)
    Blend: CC-PVDZ-JKFIT
  @DF-RKS Final Energy:  -381.47031566721643
    Total Energy =                       -381.4703156672164255
  Basis Set: 6-31G*
    Blend: 6-31G*
  Basis Set: (6-31G* AUX)
    Blend: CC-PVDZ-JKFIT
  Charge       = 1
  Multiplicity = 1
  Basis Set: 6-31G*
    Blend: 6-31G*
  Basis Set: (6-31G* AUX)
    Blend: CC-PVDZ-JKFIT

    Orbital Energies [Eh]
    ---------------------

    Doubly Occupied:

       1A    -14.567306     2A    -14.567203     3A    -10.496997
       4A    -10.373946     5A    -10.357095     6A    -10.356951
       7A    -10.343962     8A    -10.341077     9A    -10.341010
      10A     -1.183401    11A     -1.091163    12A     -1.014855
      13A     -0.927099    14A     -0.902964    15A     -0.845730
      16A     -0.785618    17A     -0.774151    18A     -0.740068
      19A     -0.733857    20A     -0.688858    21A     -0.669168
      22A     -0.626784    23A     -0.615913    24A     -0.588948
      25A     -0.579729    26A     -0.573542    27A     -0.518388
      28A     -0.506454    29A     -0.498742    30A     -0.472407
      31A     -0.412282    32A     -0.406366

  @DF-RKS Final Energy:  -381.47031662216239

   => Energetics <=

    Nuclear Repulsion Energy =            416.9141352550360580
    One-Electron Energy =               -1329.0168605239300632
    Two-Electron Energy =                 575.0505070579994253
    DFT Exchange-Correlation Energy =     -44.4062359012678058
    Empirical Dispersion Energy =          -0.0118625100000000
    VV10 Nonlocal Energy =                  0.0000000000000000
    Total Energy =                       -381.4703166221623860
    Molecular point group: c1
  Basis Set: 6-31G*
    Blend: 6-31G*
  Basis Set: (6-31G* AUX)
    Blend: CC-PVDZ-JKFIT

  -Total Gradient:
     Atom            X                  Y                   Z
    ------   -----------------  -----------------  -----------------
       1        0.001618283986    -0.000387645150     0.000067991964
       2       -0.001503932955     0.000035581774    -0.000013135755
       3       -0.000007628959    -0.000004393492     0.000009442065
       4        0.000004095871    -0.000005879763    -0.000005634208
       5       -0.000003772366     0.000010833729     0.000022257195
       6        0.000006598083     0.000000160464    -0.000038456310
       7        0.001252146545     0.001071711981    -0.000088401128
       8       -0.000004389226     0.000001722127    -0.000002589930
       9       -0.000000828837     0.000002048483    -0.000004724467
      10       -0.000001638865     0.000000831847    -0.000002215262
      11       -0.000000432607    -0.000002583721    -0.000004990053
      12       -0.000005810298    -0.000000047800     0.000013892534
      13       -0.001316863096    -0.000754985260     0.000027242968
      14       -0.000062531566     0.000000676025     0.000019236252
      15        0.000034450141     0.000007197050     0.000014620360
      16        0.000055998083    -0.000030779067    -0.000017297063
      17       -0.000042331882     0.000055902265    -0.000035497441
      18       -0.000023471932    -0.000001292319     0.000015881856

  **** Optimization is complete! (in 8 steps) ****
    Final optimized geometry and variables:
    Molecular point group: c1

    Geometry (in Angstrom), charge = 1, multiplicity = 1:

    C            0.023064577114     0.001363539552    -0.177435454287
    C            0.068766249513     1.219236455284     0.527871376224
    C            0.058656632314     1.213299302547     1.918682428125
    C           -0.007563626679     0.001458361460     2.613214356101
    C           -0.062689535395    -1.210019318070     1.917464915141
    C           -0.047829017606    -1.216068448567     0.526496973284
    C            0.010712406752     0.001380423757    -1.643808932828
    H            0.169825782108     2.162114503354    -0.002229931792
    H            0.112684570275     2.151518287663     2.461188079896
    H           -0.018099096733     0.001440004284     3.698811530987
    H           -0.130869272265    -2.148069773080     2.458679130083
    H           -0.143975011694    -2.158387554274    -0.005168306035
    N            0.547811556274    -1.013796698641    -2.316382454342
    N           -0.556948754035     1.005963596967    -2.306645232603
    H           -0.513511288932     1.090772654300    -3.315274685508
    H           -1.122452465350     1.683768717921    -1.813289509322
    H            1.133667831999    -1.684977652655    -1.837803417220
    H            0.478748462341    -1.100996401802    -3.323370865904

  Dipole Moment: [D]
     X:    -0.0130      Y:     0.0009      Z:    -5.6653     Total:     5.6653

  Mulliken Charges: (a.u.)
   Center  Symbol    Alpha    Beta     Spin     Total
       1     C     2.95190  2.95190  0.00000  0.09620
       2     C     3.08423  3.08423  0.00000 -0.16845
       3     C     3.06252  3.06252  0.00000 -0.12503
       4     C     3.05133  3.05133  0.00000 -0.10266
       5     C     3.06215  3.06215  0.00000 -0.12429
       6     C     3.08276  3.08276  0.00000 -0.16552
       7     C     2.71803  2.71803  0.00000  0.56393
       8     H     0.41471  0.41471  0.00000  0.17059
       9     H     0.40530  0.40530  0.00000  0.18941
      10     H     0.40358  0.40358  0.00000  0.19283
      11     H     0.40528  0.40528  0.00000  0.18943
      12     H     0.41483  0.41483  0.00000  0.17034
      13     N     3.86602  3.86602  0.00000 -0.73203
      14     N     3.86553  3.86553  0.00000 -0.73107
      15     H     0.30576  0.30576  0.00000  0.38848
      16     H     0.30012  0.30012  0.00000  0.39977
      17     H     0.30019  0.30019  0.00000  0.39961
      18     H     0.30577  0.30577  0.00000  0.38847

   Total alpha = 32.00000, Total beta = 32.00000, Total charge =  1.00000

*** Psi4 exiting successfully. Buy a developer a beer!
