                               Psi4 1.2.1 release

  ==> Input File <==

--------------------------------------------------------------------------
set_num_threads(1)
set_memory('5348 MB')

set { scf_mem_safety_factor 0.7 }

set { reference rks }
set { basis cc-pVDZ }

molecule MOL {
    0 1
    noreorient
    nocom
    symmetry c1
    O    1.050400   0.042900  -0.048100
    C    2.474100   0.047400  -0.029000
    C    3.002600  -1.068900  -0.932000
    N    4.462700  -1.072400  -1.006800
    H    0.760400   0.728400   0.578000
    H    2.809900  -0.097900   1.003200
    H    2.817400   1.026800  -0.378600
    H    2.581000  -0.963300  -1.938400
    H    2.653800  -2.036400  -0.553400
    H    4.800484  -0.111677  -1.055740
    H    4.745250  -1.512266  -1.882548
}

set optking { frozen_dihedral = (" 2 3 4 10 ") }

energy, wfn = energy('B3LYP-D3', return_wfn=True)

import os
os.chdir(os.environ['HTMD_PSI4_WORKDIR'])

oeprop(wfn, 'DIPOLE', 'QUADRUPOLE', 'MULLIKEN_CHARGES')

with open('psi4out.xyz', 'w') as f:
    f.write('11 ' )
    f.write('%.12f\n' % energy)
    f.write(MOL.save_string_xyz())
--------------------------------------------------------------------------

    Molecular point group: c1

    Geometry (in Angstrom), charge = 0, multiplicity = 1:

       Center              X                  Y                   Z               Mass
    ------------   -----------------  -----------------  -----------------  -----------------
         O            1.050400000000     0.042900000000    -0.048100000000    15.994914619560
         C            2.474100000000     0.047400000000    -0.029000000000    12.000000000000
         C            3.002600000000    -1.068900000000    -0.932000000000    12.000000000000
         N            4.462700000000    -1.072400000000    -1.006800000000    14.003074004780
         H            0.760400000000     0.728400000000     0.578000000000     1.007825032070
         H            2.809900000000    -0.097900000000     1.003200000000     1.007825032070
         H            2.817400000000     1.026800000000    -0.378600000000     1.007825032070
         H            2.581000000000    -0.963300000000    -1.938400000000     1.007825032070
         H            2.653800000000    -2.036400000000    -0.553400000000     1.007825032070
         H            4.800484000000    -0.111677000000    -1.055740000000     1.007825032070
         H            4.745250000000    -1.512266000000    -1.882548000000     1.007825032070

  Charge       = 0
  Multiplicity = 1
  Basis Set: CC-PVDZ
    Blend: CC-PVDZ
  Basis Set: (CC-PVDZ AUX)
    Blend: CC-PVDZ-JKFIT

    Orbital Energies [Eh]
    ---------------------

    Doubly Occupied:

       1A    -19.129683     2A    -14.303567     3A    -10.228092
       4A    -10.201399     5A     -1.012042     6A     -0.876714
       7A     -0.712871     8A     -0.600859     9A     -0.508642
      10A     -0.476786    11A     -0.466427    12A     -0.413463
      13A     -0.380650    14A     -0.374370    15A     -0.324489
      16A     -0.263493    17A     -0.229063

  @DF-RKS Final Energy:  -210.38946752029415

   => Energetics <=

    Nuclear Repulsion Energy =            130.5713800801728723
    One-Electron Energy =                -544.0339896334087371
    Two-Electron Energy =                 226.5651191410944136
    DFT Exchange-Correlation Energy =     -23.4870615181526468
    Empirical Dispersion Energy =          -0.0049155900000000
    VV10 Nonlocal Energy =                  0.0000000000000000
    Total Energy =                       -210.3894675202941187

  Dipole Moment: [D]
     X:     0.3988      Y:     1.5592      Z:    -0.1853     Total:     1.6200

  Mulliken Charges: (a.u.)
   Center  Symbol    Alpha    Beta     Spin     Total
       1     O     4.13809  4.13809  0.00000 -0.27618
       2     C     2.93706  2.93706  0.00000  0.12588
       3     C     2.97862  2.97862  0.00000  0.04277
       4     N     3.59400  3.59400  0.00000 -0.18800
       5     H     0.42985  0.42985  0.00000  0.14030
       6     H     0.49684  0.49684  0.00000  0.00632
       7     H     0.50390  0.50390  0.00000 -0.00780
       8     H     0.50010  0.50010  0.00000 -0.00020
       9     H     0.49000  0.49000  0.00000  0.02000
      10     H     0.46821  0.46821  0.00000  0.06358
      11     H     0.46334  0.46334  0.00000  0.07333

   Total alpha = 17.00000, Total beta = 17.00000, Total charge =  0.00000

*** Psi4 exiting successfully. Buy a developer a beer!
