                               Psi4 1.2.1 release

  ==> Input File <==

--------------------------------------------------------------------------
set_num_threads(1)
set_memory('5348 MB')

set { scf_mem_safety_factor 0.7 }

set { reference rks }
set { basis cc-pVDZ }

molecule MOL {
    0 1
    noreorient
    nocom
    symmetry c1
    O    1.050400   0.042900  -0.048100
    C    2.474100   0.047400  -0.029000
    C    3.002600  -1.068900  -0.932000
    N    4.462700  -1.072400  -1.006800
    H    0.766126   0.961802   0.096185
    H    2.809900  -0.097900   1.003200
    H    2.817400   1.026800  -0.378600
    H    2.581000  -0.963300  -1.938400
    H    2.653800  -2.036400  -0.553400
    H    4.779000  -0.221000  -1.470000
    H    4.758600  -1.842500  -1.606500
}

set optking { frozen_dihedral = (" 3 2 1 5 ") }

energy, wfn = energy('B3LYP-D3', return_wfn=True)

import os
os.chdir(os.environ['HTMD_PSI4_WORKDIR'])

oeprop(wfn, 'DIPOLE', 'QUADRUPOLE', 'MULLIKEN_CHARGES')

with open('psi4out.xyz', 'w') as f:
    f.write('11 ' )
    f.write('%.12f\n' % energy)
    f.write(MOL.save_string_xyz())
--------------------------------------------------------------------------

    Molecular point group: c1

    Geometry (in Angstrom), charge = 0, multiplicity = 1:

       Center              X                  Y                   Z               Mass
    ------------   -----------------  -----------------  -----------------  -----------------
         O            1.050400000000     0.042900000000    -0.048100000000    15.994914619560
         C            2.474100000000     0.047400000000    -0.029000000000    12.000000000000
         C            3.002600000000    -1.068900000000    -0.932000000000    12.000000000000
         N            4.462700000000    -1.072400000000    -1.006800000000    14.003074004780
         H            0.766126000000     0.961802000000     0.096185000000     1.007825032070
         H            2.809900000000    -0.097900000000     1.003200000000     1.007825032070
         H            2.817400000000     1.026800000000    -0.378600000000     1.007825032070
         H            2.581000000000    -0.963300000000    -1.938400000000     1.007825032070
         H            2.653800000000    -2.036400000000    -0.553400000000     1.007825032070
         H            4.779000000000    -0.221000000000    -1.470000000000     1.007825032070
         H            4.758600000000    -1.842500000000    -1.606500000000     1.007825032070

  Charge       = 0
  Multiplicity = 1
  Basis Set: CC-PVDZ
    Blend: CC-PVDZ
  Basis Set: (CC-PVDZ AUX)
    Blend: CC-PVDZ-JKFIT

    Orbital Energies [Eh]
    ---------------------

    Doubly Occupied:

       1A    -19.127264     2A    -14.304530     3A    -10.223985
       4A    -10.200849     5A     -1.009847     6A     -0.876420
       7A     -0.711766     8A     -0.597538     9A     -0.509107
      10A     -0.481792    11A     -0.458413    12A     -0.408187
      13A     -0.391035    14A     -0.366944    15A     -0.321260
      16A     -0.261413    17A     -0.230871

  @DF-RKS Final Energy:  -210.39053953850927

   => Energetics <=

    Nuclear Repulsion Energy =            130.4479176267938954
    One-Electron Energy =                -543.8322179676571295
    Two-Electron Energy =                 226.4854395207721893
    DFT Exchange-Correlation Energy =     -23.4867563184182551
    Empirical Dispersion Energy =          -0.0049224000000000
    VV10 Nonlocal Energy =                  0.0000000000000000
    Total Energy =                       -210.3905395385092731

  Dipole Moment: [D]
     X:     0.4549      Y:     1.3613      Z:    -1.0756     Total:     1.7936

  Mulliken Charges: (a.u.)
   Center  Symbol    Alpha    Beta     Spin     Total
       1     O     4.13944  4.13944  0.00000 -0.27887
       2     C     2.93002  2.93002  0.00000  0.13997
       3     C     2.98396  2.98396  0.00000  0.03207
       4     N     3.59345  3.59345  0.00000 -0.18690
       5     H     0.42937  0.42937  0.00000  0.14126
       6     H     0.49592  0.49592  0.00000  0.00816
       7     H     0.50504  0.50504  0.00000 -0.01009
       8     H     0.50347  0.50347  0.00000 -0.00694
       9     H     0.48921  0.48921  0.00000  0.02158
      10     H     0.46655  0.46655  0.00000  0.06690
      11     H     0.46357  0.46357  0.00000  0.07286

   Total alpha = 17.00000, Total beta = 17.00000, Total charge =  0.00000

*** Psi4 exiting successfully. Buy a developer a beer!
