                               Psi4 1.2.1 release

  ==> Input File <==

--------------------------------------------------------------------------
set_num_threads(1)
set_memory('5348 MB')

set { scf_mem_safety_factor 0.7 }

set { reference rks }
set { basis cc-pVDZ }

molecule MOL {
    0 1
    noreorient
    nocom
    symmetry c1
    O    1.050400   0.042900  -0.048100
    C    2.474100   0.047400  -0.029000
    C    3.002600  -1.068900  -0.932000
    N    4.462700  -1.072400  -1.006800
    H    0.758293   0.373665   0.818664
    H    2.809900  -0.097900   1.003200
    H    2.817400   1.026800  -0.378600
    H    2.581000  -0.963300  -1.938400
    H    2.653800  -2.036400  -0.553400
    H    4.779000  -0.221000  -1.470000
    H    4.758600  -1.842500  -1.606500
}

set optking { frozen_dihedral = (" 3 2 1 5 ") }

energy, wfn = energy('B3LYP-D3', return_wfn=True)

import os
os.chdir(os.environ['HTMD_PSI4_WORKDIR'])

oeprop(wfn, 'DIPOLE', 'QUADRUPOLE', 'MULLIKEN_CHARGES')

with open('psi4out.xyz', 'w') as f:
    f.write('11 ' )
    f.write('%.12f\n' % energy)
    f.write(MOL.save_string_xyz())
--------------------------------------------------------------------------

    Molecular point group: c1

    Geometry (in Angstrom), charge = 0, multiplicity = 1:

       Center              X                  Y                   Z               Mass
    ------------   -----------------  -----------------  -----------------  -----------------
         O            1.050400000000     0.042900000000    -0.048100000000    15.994914619560
         C            2.474100000000     0.047400000000    -0.029000000000    12.000000000000
         C            3.002600000000    -1.068900000000    -0.932000000000    12.000000000000
         N            4.462700000000    -1.072400000000    -1.006800000000    14.003074004780
         H            0.758293000000     0.373665000000     0.818664000000     1.007825032070
         H            2.809900000000    -0.097900000000     1.003200000000     1.007825032070
         H            2.817400000000     1.026800000000    -0.378600000000     1.007825032070
         H            2.581000000000    -0.963300000000    -1.938400000000     1.007825032070
         H            2.653800000000    -2.036400000000    -0.553400000000     1.007825032070
         H            4.779000000000    -0.221000000000    -1.470000000000     1.007825032070
         H            4.758600000000    -1.842500000000    -1.606500000000     1.007825032070

  Charge       = 0
  Multiplicity = 1
  Basis Set: CC-PVDZ
    Blend: CC-PVDZ
  Basis Set: (CC-PVDZ AUX)
    Blend: CC-PVDZ-JKFIT

    Orbital Energies [Eh]
    ---------------------

    Doubly Occupied:

       1A    -19.127295     2A    -14.304317     3A    -10.223931
       4A    -10.200819     5A     -1.009762     6A     -0.876237
       7A     -0.711654     8A     -0.597580     9A     -0.508055
      10A     -0.485399    11A     -0.448540    12A     -0.421246
      13A     -0.387823    14A     -0.361207    15A     -0.323602
      16A     -0.261893    17A     -0.230488

  @DF-RKS Final Energy:  -210.39096988973606

   => Energetics <=

    Nuclear Repulsion Energy =            130.4400072220310562
    One-Electron Energy =                -543.8200360021064625
    Two-Electron Energy =                 226.4805903372465821
    DFT Exchange-Correlation Energy =     -23.4866097169072319
    Empirical Dispersion Energy =          -0.0049217300000000
    VV10 Nonlocal Energy =                  0.0000000000000000
    Total Energy =                       -210.3909698897360556

  Dipole Moment: [D]
     X:     0.4426      Y:     0.4518      Z:     0.0407     Total:     0.6338

  Mulliken Charges: (a.u.)
   Center  Symbol    Alpha    Beta     Spin     Total
       1     O     4.13942  4.13942  0.00000 -0.27884
       2     C     2.93034  2.93034  0.00000  0.13933
       3     C     2.98433  2.98433  0.00000  0.03133
       4     N     3.59407  3.59407  0.00000 -0.18814
       5     H     0.42919  0.42919  0.00000  0.14162
       6     H     0.49819  0.49819  0.00000  0.00362
       7     H     0.50264  0.50264  0.00000 -0.00527
       8     H     0.50041  0.50041  0.00000 -0.00081
       9     H     0.49219  0.49219  0.00000  0.01563
      10     H     0.46564  0.46564  0.00000  0.06873
      11     H     0.46360  0.46360  0.00000  0.07280

   Total alpha = 17.00000, Total beta = 17.00000, Total charge =  0.00000

*** Psi4 exiting successfully. Buy a developer a beer!
