                               Psi4 1.2.1 release

  ==> Input File <==

--------------------------------------------------------------------------
set_num_threads(4)
set_memory('3000 MB')

set { scf_mem_safety_factor 0.7 }

set { reference rks }
set { basis 6-31G* }

molecule MOL {
    1 1
    noreorient
    nocom
    symmetry c1
    C   -0.000000  -0.000000  -0.177864
    C    0.036678   1.219374   0.524165
    C    0.031765   1.213120   1.915444
    C    0.000000   0.000000   2.610107
    C   -0.031765  -1.213120   1.915444
    C   -0.036678  -1.219375   0.524165
    C   -0.000000   0.000000  -1.644734
    H    0.018170   2.164705  -0.010854
    H    0.042402   2.152895   2.457886
    H    0.000000   0.000000   3.695756
    H   -0.042402  -2.152895   2.457886
    H   -0.018170  -2.164705  -0.010853
    N   -1.128577   0.234187  -2.308460
    N    1.128577  -0.234187  -2.308461
    H    1.201113  -0.154337  -3.315997
    H    1.943991  -0.570662  -1.813317
    H   -1.943991   0.570662  -1.813316
    H   -1.201113   0.154337  -3.315997
}

set optking { frozen_dihedral = (" 2 1 7 13 ") }

set optking { dynamic_level = 1
 geom_maxiter = 250
 print_trajectory_xyz_file = True }

energy, wfn = optimize('B3LYP-D3', return_wfn=True)

import os
os.chdir(os.environ['HTMD_PSI4_WORKDIR'])

oeprop(wfn, 'DIPOLE', 'QUADRUPOLE', 'MULLIKEN_CHARGES')

with open('psi4out.xyz', 'w') as f:
    f.write('18 ' )
    f.write('%.12f\n' % energy)
    f.write(MOL.save_string_xyz())
--------------------------------------------------------------------------

    Molecular point group: c1
  Charge       = 1
  Multiplicity = 1
  Basis Set: 6-31G*
    Blend: 6-31G*
  Basis Set: (6-31G* AUX)
    Blend: CC-PVDZ-JKFIT
  @DF-RKS Final Energy:  -381.46184123864225
    Total Energy =                       -381.4618412386421937
    Molecular point group: c1
  Basis Set: 6-31G*
    Blend: 6-31G*
  Basis Set: (6-31G* AUX)
    Blend: CC-PVDZ-JKFIT
  Basis Set: 6-31G*
    Blend: 6-31G*
  Basis Set: (6-31G* AUX)
    Blend: CC-PVDZ-JKFIT
  @DF-RKS Final Energy:  -381.46407504129479
    Total Energy =                       -381.4640750412947909
  Basis Set: 6-31G*
    Blend: 6-31G*
  Basis Set: (6-31G* AUX)
    Blend: CC-PVDZ-JKFIT
  Basis Set: 6-31G*
    Blend: 6-31G*
  @DF-RKS Final Energy:  -381.46460579157281
    Total Energy =                       -381.4646057915728079
  @DF-RKS Final Energy:  -381.46465129826828
    Total Energy =                       -381.4646512982682793
  Basis Set: (6-31G* AUX)
    Blend: CC-PVDZ-JKFIT
  Basis Set: 6-31G*
    Blend: 6-31G*
  Basis Set: (6-31G* AUX)
    Blend: CC-PVDZ-JKFIT
  @DF-RKS Final Energy:  -381.46465536088436
    Total Energy =                       -381.4646553608843647
  Basis Set: 6-31G*
    Blend: 6-31G*
  Basis Set: (6-31G* AUX)
    Blend: CC-PVDZ-JKFIT
  Charge       = 1
  Multiplicity = 1
  Basis Set: 6-31G*
    Blend: 6-31G*
  Basis Set: (6-31G* AUX)
    Blend: CC-PVDZ-JKFIT

    Orbital Energies [Eh]
    ---------------------

    Doubly Occupied:

       1A    -14.576165     2A    -14.576045     3A    -10.502885
       4A    -10.368075     5A    -10.348969     6A    -10.348862
       7A    -10.333790     8A    -10.333559     9A    -10.332880
      10A     -1.190470    11A     -1.099587    12A     -1.008811
      13A     -0.921993    14A     -0.895081    15A     -0.845544
      16A     -0.788093    17A     -0.765744    18A     -0.754644
      19A     -0.728111    20A     -0.691750    21A     -0.666886
      22A     -0.623534    23A     -0.615887    24A     -0.577721
      25A     -0.573089    26A     -0.567283    27A     -0.515481
      28A     -0.496614    29A     -0.491588    30A     -0.479912
      31A     -0.404620    32A     -0.398287

  @DF-RKS Final Energy:  -381.46465575150461

   => Energetics <=

    Nuclear Repulsion Energy =            416.2506755594197330
    One-Electron Energy =               -1327.8406198735240196
    Two-Electron Energy =                 574.5410268276660872
    DFT Exchange-Correlation Energy =     -44.4040566350664321
    Empirical Dispersion Energy =          -0.0116816300000000
    VV10 Nonlocal Energy =                  0.0000000000000000
    Total Energy =                       -381.4646557515046084
    Molecular point group: c1
  Basis Set: 6-31G*
    Blend: 6-31G*
  Basis Set: (6-31G* AUX)
    Blend: CC-PVDZ-JKFIT

  -Total Gradient:
     Atom            X                  Y                   Z
    ------   -----------------  -----------------  -----------------
       1       -0.004936681964    -0.001193280909    -0.000075700476
       2        0.003150476031    -0.000139188879     0.000061103020
       3        0.000016707873     0.000010386592    -0.000009498277
       4       -0.000001006887    -0.000008255546    -0.000006348975
       5       -0.000019383027     0.000001302744     0.000009012602
       6        0.000010991403     0.000013128463    -0.000034128862
       7        0.002505813652     0.004493389308     0.000049367441
       8       -0.000006953341    -0.000002111673     0.000001518262
       9       -0.000005648204    -0.000002405384     0.000002812380
      10        0.000002148999     0.000000249955    -0.000000191115
      11        0.000006212173    -0.000000731519    -0.000000956037
      12        0.000007952372    -0.000003023135     0.000002822095
      13       -0.000712218189    -0.003206845024    -0.000010473630
      14       -0.000015850975     0.000042400470     0.000026476833
      15        0.000002164308    -0.000008190079    -0.000010515591
      16        0.000017279857     0.000001709965    -0.000006653475
      17       -0.000009646239     0.000005951936    -0.000005103581
      18       -0.000004800424    -0.000001295114    -0.000005728293

  **** Optimization is complete! (in 6 steps) ****
    Final optimized geometry and variables:
    Molecular point group: c1

    Geometry (in Angstrom), charge = 1, multiplicity = 1:

    C           -0.040364447873     0.010430896695    -0.173952911765
    C            0.001425375718     1.228174022202     0.520113111481
    C            0.027841555812     1.212927600283     1.913983618122
    C            0.015747090903    -0.003244182107     2.601820486908
    C           -0.013738521505    -1.212857255934     1.902425446366
    C           -0.028254769150    -1.214869440232     0.508552969363
    C           -0.010891982510     0.013906886036    -1.656755308422
    H            0.015672571680     2.170704633302    -0.019919128818
    H            0.061591424960     2.149996630832     2.460439967711
    H            0.033281003689    -0.008759906109     3.687276259139
    H           -0.021401077348    -2.155431815412     2.440379796579
    H           -0.046763252187    -2.152091703781    -0.040457667694
    N           -1.125275648008     0.267630683593    -2.324907499551
    N            1.120413367944    -0.282672838968    -2.277063506608
    H            1.206845527571    -0.346871438844    -3.286227542709
    H            1.955011125060    -0.446433762201    -1.727536800090
    H           -1.977070101462     0.453163507964    -1.809713538167
    H           -1.174069243295     0.316296482680    -3.337457751847

  Dipole Moment: [D]
     X:     0.0439      Y:     0.0240      Z:    -6.4875     Total:     6.4877

  Mulliken Charges: (a.u.)
   Center  Symbol    Alpha    Beta     Spin     Total
       1     C     2.99250  2.99250  0.00000  0.01499
       2     C     3.07105  3.07105  0.00000 -0.14209
       3     C     3.06248  3.06248  0.00000 -0.12495
       4     C     3.05360  3.05360  0.00000 -0.10721
       5     C     3.06304  3.06304  0.00000 -0.12609
       6     C     3.07129  3.07129  0.00000 -0.14257
       7     C     2.74676  2.74676  0.00000  0.50648
       8     H     0.41356  0.41356  0.00000  0.17289
       9     H     0.40732  0.40732  0.00000  0.18537
      10     H     0.40668  0.40668  0.00000  0.18663
      11     H     0.40730  0.40730  0.00000  0.18541
      12     H     0.41363  0.41363  0.00000  0.17273
      13     N     3.84482  3.84482  0.00000 -0.68964
      14     N     3.84497  3.84497  0.00000 -0.68995
      15     H     0.30500  0.30500  0.00000  0.39000
      16     H     0.29556  0.29556  0.00000  0.40889
      17     H     0.29536  0.29536  0.00000  0.40928
      18     H     0.30508  0.30508  0.00000  0.38984

   Total alpha = 32.00000, Total beta = 32.00000, Total charge =  1.00000

*** Psi4 exiting successfully. Buy a developer a beer!
