                               Psi4 1.2.1 release

  ==> Input File <==

--------------------------------------------------------------------------
set_num_threads(1)
set_memory('5348 MB')

set { scf_mem_safety_factor 0.7 }

set { reference rks }
set { basis cc-pVDZ }

molecule MOL {
    0 1
    noreorient
    nocom
    symmetry c1
    O    1.014300  -0.002300   0.060500
    O    2.462400  -0.107500  -0.002400
    H    0.821200  -0.823600  -0.430600
    H    2.654257   0.614709   0.625646
}

set optking { frozen_dihedral = (" 3 1 2 4 ") }

set optking { dynamic_level = 1
 geom_maxiter = 250
 print_trajectory_xyz_file = True }

energy, wfn = optimize('B3LYP-D3', return_wfn=True)

import os
os.chdir(os.environ['HTMD_PSI4_WORKDIR'])

oeprop(wfn, 'DIPOLE', 'QUADRUPOLE', 'MULLIKEN_CHARGES')

with open('psi4out.xyz', 'w') as f:
    f.write('4 ' )
    f.write('%.12f\n' % energy)
    f.write(MOL.save_string_xyz())
--------------------------------------------------------------------------

    Molecular point group: c1
  Charge       = 0
  Multiplicity = 1
  Basis Set: CC-PVDZ
    Blend: CC-PVDZ
  Basis Set: (CC-PVDZ AUX)
    Blend: CC-PVDZ-JKFIT
  @DF-RKS Final Energy:  -151.54973054979598
    Total Energy =                       -151.5497305497959815
    Molecular point group: c1
  Basis Set: CC-PVDZ
    Blend: CC-PVDZ
  Basis Set: (CC-PVDZ AUX)
    Blend: CC-PVDZ-JKFIT
  Basis Set: CC-PVDZ
    Blend: CC-PVDZ
  Basis Set: (CC-PVDZ AUX)
    Blend: CC-PVDZ-JKFIT
  @DF-RKS Final Energy:  -151.54989556024975
    Total Energy =                       -151.5498955602497517
  Basis Set: CC-PVDZ
    Blend: CC-PVDZ
  Basis Set: (CC-PVDZ AUX)
    Blend: CC-PVDZ-JKFIT
  Charge       = 0
  Multiplicity = 1
  Basis Set: CC-PVDZ
    Blend: CC-PVDZ
  Basis Set: (CC-PVDZ AUX)
    Blend: CC-PVDZ-JKFIT

    Orbital Energies [Eh]
    ---------------------

    Doubly Occupied:

       1A    -19.185550     2A    -19.185512     3A     -1.104305
       4A     -0.890616     5A     -0.499063     6A     -0.498975
       7A     -0.388698     8A     -0.353879     9A     -0.244163

  @DF-RKS Final Energy:  -151.55012433305779

   => Energetics <=

    Nuclear Repulsion Energy =             36.5939280389623320
    One-Electron Energy =                -281.2023668946587804
    Two-Electron Energy =                 107.5203080884940334
    DFT Exchange-Correlation Energy =     -14.4616583558553877
    Empirical Dispersion Energy =          -0.0003352100000000
    VV10 Nonlocal Energy =                  0.0000000000000000
    Total Energy =                       -151.5501243330577950
    Molecular point group: c1
  Basis Set: CC-PVDZ
    Blend: CC-PVDZ
  Basis Set: (CC-PVDZ AUX)
    Blend: CC-PVDZ-JKFIT

  -Total Gradient:
     Atom            X                  Y                   Z
    ------   -----------------  -----------------  -----------------
       1        0.000107496898    -0.000309207151     0.000204712490
       2       -0.000112269746    -0.000096038840     0.000356827874
       3       -0.000130413994     0.000174743593    -0.000304093948
       4        0.000135210532     0.000232398710    -0.000260069463

  **** Optimization is complete! (in 3 steps) ****
    Final optimized geometry and variables:
    Molecular point group: c1

    Geometry (in Angstrom), charge = 0, multiplicity = 1:

    O            1.008458101263    -0.012775520552     0.053315334108
    O            2.468237479317    -0.097473909352     0.005334013521
    H            0.804401506269    -0.828163916761    -0.434490610061
    H            2.671059913151     0.619722346664     0.628987262433

  Dipole Moment: [D]
     X:    -0.0022      Y:    -0.1731      Z:     0.2394     Total:     0.2954

  Mulliken Charges: (a.u.)
   Center  Symbol    Alpha    Beta     Spin     Total
       1     O     4.09079  4.09079  0.00000 -0.18159
       2     O     4.09079  4.09079  0.00000 -0.18159
       3     H     0.40921  0.40921  0.00000  0.18159
       4     H     0.40921  0.40921  0.00000  0.18159

   Total alpha =  9.00000, Total beta =  9.00000, Total charge = -0.00000

*** Psi4 exiting successfully. Buy a developer a beer!
