                               Psi4 1.2.1 release

  ==> Input File <==

--------------------------------------------------------------------------
set_num_threads(4)
set_memory('3000 MB')

set { scf_mem_safety_factor 0.7 }

set { reference rks }
set { basis 6-31G* }

molecule MOL {
    1 1
    noreorient
    nocom
    symmetry c1
    C   -0.000000  -0.000000  -0.177864
    C    0.036678   1.219374   0.524165
    C    0.031765   1.213120   1.915444
    C    0.000000   0.000000   2.610107
    C   -0.031765  -1.213120   1.915444
    C   -0.036678  -1.219375   0.524165
    C   -0.000000   0.000000  -1.644734
    H    0.018170   2.164705  -0.010854
    H    0.042402   2.152895   2.457886
    H    0.000000   0.000000   3.695756
    H   -0.042402  -2.152895   2.457886
    H   -0.018170  -2.164705  -0.010853
    N   -0.712590  -0.905950  -2.308461
    N    0.712590   0.905950  -2.308460
    H    0.673432   1.006470  -3.315997
    H    1.377190   1.485970  -1.813316
    H   -1.472674  -1.387079  -1.845783
    H   -0.575653  -1.099813  -3.293566
}

set optking { frozen_dihedral = (" 1 7 13 17 ") }

set optking { dynamic_level = 1
 geom_maxiter = 250
 print_trajectory_xyz_file = True }

energy, wfn = optimize('B3LYP-D3', return_wfn=True)

import os
os.chdir(os.environ['HTMD_PSI4_WORKDIR'])

oeprop(wfn, 'DIPOLE', 'QUADRUPOLE', 'MULLIKEN_CHARGES')

with open('psi4out.xyz', 'w') as f:
    f.write('18 ' )
    f.write('%.12f\n' % energy)
    f.write(MOL.save_string_xyz())
--------------------------------------------------------------------------

    Molecular point group: c1
  Charge       = 1
  Multiplicity = 1
  Basis Set: 6-31G*
    Blend: 6-31G*
  Basis Set: (6-31G* AUX)
    Blend: CC-PVDZ-JKFIT
  @DF-RKS Final Energy:  -381.46960836858233
    Total Energy =                       -381.4696083685822714
    Molecular point group: c1
  Basis Set: 6-31G*
    Blend: 6-31G*
  Basis Set: (6-31G* AUX)
    Blend: CC-PVDZ-JKFIT
  Basis Set: 6-31G*
    Blend: 6-31G*
  Basis Set: (6-31G* AUX)
    Blend: CC-PVDZ-JKFIT
  @DF-RKS Final Energy:  -381.47005215242615
    Total Energy =                       -381.4700521524261490
  Basis Set: 6-31G*
    Blend: 6-31G*
  Basis Set: (6-31G* AUX)
    Blend: CC-PVDZ-JKFIT
  Basis Set: 6-31G*
    Blend: 6-31G*
  @DF-RKS Final Energy:  -381.47019970547655
    Total Energy =                       -381.4701997054765457
  @DF-RKS Final Energy:  -381.47022854569906
    Total Energy =                       -381.4702285456990580
  Basis Set: (6-31G* AUX)
    Blend: CC-PVDZ-JKFIT
  Basis Set: 6-31G*
    Blend: 6-31G*
  Basis Set: (6-31G* AUX)
    Blend: CC-PVDZ-JKFIT
  @DF-RKS Final Energy:  -381.47022978243621
    Total Energy =                       -381.4702297824361494
  Basis Set: 6-31G*
    Blend: 6-31G*
  Basis Set: (6-31G* AUX)
    Blend: CC-PVDZ-JKFIT
  Charge       = 1
  Multiplicity = 1
  Basis Set: 6-31G*
    Blend: 6-31G*
  Basis Set: (6-31G* AUX)
    Blend: CC-PVDZ-JKFIT

    Orbital Energies [Eh]
    ---------------------

    Doubly Occupied:

       1A    -14.568742     2A    -14.567244     3A    -10.496987
       4A    -10.372844     5A    -10.356248     6A    -10.355739
       7A    -10.343268     8A    -10.340413     9A    -10.340206
      10A     -1.183671    11A     -1.091726    12A     -1.014178
      13A     -0.926678    14A     -0.902090    15A     -0.844992
      16A     -0.784995    17A     -0.773274    18A     -0.740738
      19A     -0.732547    20A     -0.690066    21A     -0.668948
      22A     -0.625398    23A     -0.615520    24A     -0.586483
      25A     -0.578997    26A     -0.572251    27A     -0.518160
      28A     -0.505439    29A     -0.497900    30A     -0.473791
      31A     -0.411847    32A     -0.405642

  @DF-RKS Final Energy:  -381.47022993614502

   => Energetics <=

    Nuclear Repulsion Energy =            416.9102230303313377
    One-Electron Energy =               -1329.0393229029227768
    Two-Electron Energy =                 575.0762058072874652
    DFT Exchange-Correlation Energy =     -44.4053995508409542
    Empirical Dispersion Energy =          -0.0119363200000000
    VV10 Nonlocal Energy =                  0.0000000000000000
    Total Energy =                       -381.4702299361450173
    Molecular point group: c1
  Basis Set: 6-31G*
    Blend: 6-31G*
  Basis Set: (6-31G* AUX)
    Blend: CC-PVDZ-JKFIT

  -Total Gradient:
     Atom            X                  Y                   Z
    ------   -----------------  -----------------  -----------------
       1        0.001177950006    -0.000885580457    -0.000047073787
       2        0.000013064534     0.000004499492     0.000018856444
       3       -0.000004588277     0.000003717087    -0.000004410507
       4        0.000006919144     0.000009532479     0.000005908874
       5       -0.000001346638    -0.000010635999    -0.000018157895
       6        0.000008023506     0.000011164719     0.000025468160
       7       -0.002386488936     0.001880908442    -0.000203429782
       8        0.000002193402    -0.000000182735    -0.000000855991
       9       -0.000000650098     0.000000112976     0.000001956672
      10       -0.000002045242     0.000003420430    -0.000000550221
      11       -0.000005168965     0.000000733994    -0.000001234176
      12        0.000004047883    -0.000005522357    -0.000002775219
      13        0.002590678826    -0.002468437520     0.000864012871
      14        0.000007366637    -0.000001837500    -0.000015627941
      15       -0.000003349339    -0.000000986678     0.000003615776
      16       -0.000004105659     0.000000671132     0.000000573666
      17       -0.001404434503     0.001460657551    -0.000631213869
      18       -0.000006179534    -0.000006057531    -0.000009092159

  **** Optimization is complete! (in 6 steps) ****
    Final optimized geometry and variables:
    Molecular point group: c1

    Geometry (in Angstrom), charge = 1, multiplicity = 1:

    C           -0.002137521966     0.000725845662    -0.176935559190
    C            0.038177879913     1.220743309543     0.524711679756
    C            0.034745740121     1.215586445244     1.915702329244
    C           -0.001375376401     0.002648753924     2.610870399878
    C           -0.038849044192    -1.210875874971     1.917004095981
    C           -0.044214636399    -1.218414960375     0.525859327334
    C            0.000681790924    -0.001903483522    -1.642394780019
    H            0.022170746257     2.165820687546    -0.010949790010
    H            0.049311093309     2.155460974669     2.457879925390
    H           -0.000552848303     0.003282713748     3.696546205201
    H           -0.053387852585    -2.150121579194     2.460292028459
    H           -0.031053817180    -2.162955293091    -0.010142258158
    N           -0.677288776674    -0.937416048954    -2.305818616143
    N            0.710504409165     0.904809870333    -2.307762664168
    H            0.675878160458     0.997790104267    -3.316246569168
    H            1.375721107261     1.486388398502    -1.814878092468
    H           -1.418571495130    -1.442944757075    -1.837764940361
    H           -0.637464558578    -1.023078106258    -3.315007721559

  Dipole Moment: [D]
     X:    -0.0803      Y:     0.1123      Z:    -5.7337     Total:     5.7353

  Mulliken Charges: (a.u.)
   Center  Symbol    Alpha    Beta     Spin     Total
       1     C     2.95815  2.95815  0.00000  0.08369
       2     C     3.08261  3.08261  0.00000 -0.16522
       3     C     3.06253  3.06253  0.00000 -0.12507
       4     C     3.05133  3.05133  0.00000 -0.10266
       5     C     3.06255  3.06255  0.00000 -0.12510
       6     C     3.08067  3.08067  0.00000 -0.16134
       7     C     2.72372  2.72372  0.00000  0.55256
       8     H     0.41433  0.41433  0.00000  0.17133
       9     H     0.40546  0.40546  0.00000  0.18908
      10     H     0.40381  0.40381  0.00000  0.19237
      11     H     0.40538  0.40538  0.00000  0.18923
      12     H     0.41297  0.41297  0.00000  0.17406
      13     N     3.86297  3.86297  0.00000 -0.72595
      14     N     3.86173  3.86173  0.00000 -0.72346
      15     H     0.30570  0.30570  0.00000  0.38860
      16     H     0.29962  0.29962  0.00000  0.40077
      17     H     0.30008  0.30008  0.00000  0.39984
      18     H     0.30637  0.30637  0.00000  0.38726

   Total alpha = 32.00000, Total beta = 32.00000, Total charge =  1.00000

*** Psi4 exiting successfully. Buy a developer a beer!
