                               Psi4 1.2.1 release

  ==> Input File <==

--------------------------------------------------------------------------
set_num_threads(1)
set_memory('1972 MB')

set { scf_mem_safety_factor 0.7 }

set { reference rks }
set { basis cc-pVDZ }

molecule MOL {
    0 1
    noreorient
    nocom
    symmetry c1
    O    1.014300  -0.002300   0.060500
    O    2.462400  -0.107500  -0.002400
    H    0.821200  -0.823600  -0.430600
    H    2.655500   0.713700   0.488700
}

energy, wfn = energy('B3LYP-D3', return_wfn=True)

import os
os.chdir(os.environ['HTMD_PSI4_WORKDIR'])

oeprop(wfn, 'DIPOLE', 'QUADRUPOLE', 'MULLIKEN_CHARGES')
oeprop(wfn, 'GRID_ESP')

with open('psi4out.xyz', 'w') as f:
    f.write('4 ' )
    f.write('%.12f\n' % energy)
    f.write(MOL.save_string_xyz())
--------------------------------------------------------------------------

    Molecular point group: c1

    Geometry (in Angstrom), charge = 0, multiplicity = 1:

       Center              X                  Y                   Z               Mass
    ------------   -----------------  -----------------  -----------------  -----------------
         O            1.014300000000    -0.002300000000     0.060500000000    15.994914619560
         O            2.462400000000    -0.107500000000    -0.002400000000    15.994914619560
         H            0.821200000000    -0.823600000000    -0.430600000000     1.007825032070
         H            2.655500000000     0.713700000000     0.488700000000     1.007825032070

  Charge       = 0
  Multiplicity = 1
  Basis Set: CC-PVDZ
    Blend: CC-PVDZ
  Basis Set: (CC-PVDZ AUX)
    Blend: CC-PVDZ-JKFIT

    Orbital Energies [Eh]
    ---------------------

    Doubly Occupied:

       1A    -19.185346     2A    -19.185306     3A     -1.109330
       4A     -0.886453     5A     -0.504034     6A     -0.493929
       7A     -0.389593     8A     -0.357977     9A     -0.241896

  @DF-RKS Final Energy:  -151.54968316629359

   => Energetics <=

    Nuclear Repulsion Energy =             36.7827956879795934
    One-Electron Energy =                -281.5720398265016797
    Two-Electron Energy =                 107.7032337224824801
    DFT Exchange-Correlation Energy =     -14.4633539602539738
    Empirical Dispersion Energy =          -0.0003187900000000
    VV10 Nonlocal Energy =                  0.0000000000000000
    Total Energy =                       -151.5496831662935904

  Dipole Moment: [D]
     X:    -0.0000      Y:    -0.0001      Z:     0.0000     Total:     0.0001

  Mulliken Charges: (a.u.)
   Center  Symbol    Alpha    Beta     Spin     Total
       1     O     4.09129  4.09129  0.00000 -0.18259
       2     O     4.09127  4.09127  0.00000 -0.18255
       3     H     0.40871  0.40871  0.00000  0.18259
       4     H     0.40873  0.40873  0.00000  0.18255

   Total alpha =  9.00000, Total beta =  9.00000, Total charge = -0.00000

*** Psi4 exiting successfully. Buy a developer a beer!
