                               Psi4 1.2.1 release

  ==> Input File <==

--------------------------------------------------------------------------
set_num_threads(1)
set_memory('5348 MB')

set { scf_mem_safety_factor 0.7 }

set { reference rks }
set { basis cc-pVDZ }

molecule MOL {
    0 1
    noreorient
    nocom
    symmetry c1
    O    1.050400   0.042900  -0.048100
    C    2.474100   0.047400  -0.029000
    C    3.002600  -1.068900  -0.932000
    N    2.961070  -2.374696  -0.275746
    H    0.760400   0.728400   0.578000
    H    2.809900  -0.097900   1.003200
    H    2.817400   1.026800  -0.378600
    H    4.030003  -0.842285  -1.239941
    H    2.407336  -1.102991  -1.851541
    H    3.609087  -2.377655   0.511367
    H    3.308621  -3.079685  -0.925707
}

set optking { frozen_dihedral = (" 1 2 3 4 ") }

energy, wfn = energy('B3LYP-D3', return_wfn=True)

import os
os.chdir(os.environ['HTMD_PSI4_WORKDIR'])

oeprop(wfn, 'DIPOLE', 'QUADRUPOLE', 'MULLIKEN_CHARGES')

with open('psi4out.xyz', 'w') as f:
    f.write('11 ' )
    f.write('%.12f\n' % energy)
    f.write(MOL.save_string_xyz())
--------------------------------------------------------------------------

    Molecular point group: c1

    Geometry (in Angstrom), charge = 0, multiplicity = 1:

       Center              X                  Y                   Z               Mass
    ------------   -----------------  -----------------  -----------------  -----------------
         O            1.050400000000     0.042900000000    -0.048100000000    15.994914619560
         C            2.474100000000     0.047400000000    -0.029000000000    12.000000000000
         C            3.002600000000    -1.068900000000    -0.932000000000    12.000000000000
         N            2.961070000000    -2.374696000000    -0.275746000000    14.003074004780
         H            0.760400000000     0.728400000000     0.578000000000     1.007825032070
         H            2.809900000000    -0.097900000000     1.003200000000     1.007825032070
         H            2.817400000000     1.026800000000    -0.378600000000     1.007825032070
         H            4.030003000000    -0.842285000000    -1.239941000000     1.007825032070
         H            2.407336000000    -1.102991000000    -1.851541000000     1.007825032070
         H            3.609087000000    -2.377655000000     0.511367000000     1.007825032070
         H            3.308621000000    -3.079685000000    -0.925707000000     1.007825032070

  Charge       = 0
  Multiplicity = 1
  Basis Set: CC-PVDZ
    Blend: CC-PVDZ
  Basis Set: (CC-PVDZ AUX)
    Blend: CC-PVDZ-JKFIT

    Orbital Energies [Eh]
    ---------------------

    Doubly Occupied:

       1A    -19.121644     2A    -14.299276     3A    -10.224598
       4A    -10.202670     5A     -1.005125     6A     -0.872677
       7A     -0.713536     8A     -0.596162     9A     -0.506798
      10A     -0.483778    11A     -0.452112    12A     -0.404631
      13A     -0.387967    14A     -0.371544    15A     -0.319566
      16A     -0.257853    17A     -0.225342

  @DF-RKS Final Energy:  -210.38847559189372

   => Energetics <=

    Nuclear Repulsion Energy =            131.9646821052520238
    One-Electron Energy =                -546.9338894801949209
    Two-Electron Energy =                 228.0718113296861418
    DFT Exchange-Correlation Energy =     -23.4861741466369374
    Empirical Dispersion Energy =          -0.0049054000000000
    VV10 Nonlocal Energy =                  0.0000000000000000
    Total Energy =                       -210.3884755918937230

  Dipole Moment: [D]
     X:     1.9327      Y:     0.9807      Z:     0.5261     Total:     2.2302

  Mulliken Charges: (a.u.)
   Center  Symbol    Alpha    Beta     Spin     Total
       1     O     4.13617  4.13617  0.00000 -0.27233
       2     C     2.92428  2.92428  0.00000  0.15144
       3     C     2.97890  2.97890  0.00000  0.04220
       4     N     3.58846  3.58846  0.00000 -0.17691
       5     H     0.43265  0.43265  0.00000  0.13470
       6     H     0.50496  0.50496  0.00000 -0.00993
       7     H     0.50464  0.50464  0.00000 -0.00928
       8     H     0.50801  0.50801  0.00000 -0.01603
       9     H     0.48803  0.48803  0.00000  0.02395
      10     H     0.46754  0.46754  0.00000  0.06493
      11     H     0.46636  0.46636  0.00000  0.06727

   Total alpha = 17.00000, Total beta = 17.00000, Total charge = -0.00000

*** Psi4 exiting successfully. Buy a developer a beer!
