                               Psi4 1.2.1 release

  ==> Input File <==

--------------------------------------------------------------------------
set_num_threads(4)
set_memory('3000 MB')

set { scf_mem_safety_factor 0.7 }

set { reference rks }
set { basis 6-31G* }

molecule MOL {
    1 1
    noreorient
    nocom
    symmetry c1
    C   -0.000000  -0.000000  -0.177864
    C    0.036678   1.219374   0.524165
    C    0.031765   1.213120   1.915444
    C    0.000000   0.000000   2.610107
    C   -0.031765  -1.213120   1.915444
    C   -0.036678  -1.219375   0.524165
    C   -0.000000   0.000000  -1.644734
    H    0.018170   2.164705  -0.010854
    H    0.042402   2.152895   2.457886
    H    0.000000   0.000000   3.695756
    H   -0.042402  -2.152895   2.457886
    H   -0.018170  -2.164705  -0.010853
    N   -0.712590  -0.905950  -2.308461
    N    0.712590   0.905950  -2.308460
    H    0.673432   1.006470  -3.315997
    H    1.377190   1.485970  -1.813316
    H   -0.628486  -1.885763  -2.071444
    H   -1.399350  -0.658709  -3.011312
}

set optking { frozen_dihedral = (" 1 7 13 17 ") }

set optking { dynamic_level = 1
 geom_maxiter = 250
 print_trajectory_xyz_file = True }

energy, wfn = optimize('B3LYP-D3', return_wfn=True)

import os
os.chdir(os.environ['HTMD_PSI4_WORKDIR'])

oeprop(wfn, 'DIPOLE', 'QUADRUPOLE', 'MULLIKEN_CHARGES')

with open('psi4out.xyz', 'w') as f:
    f.write('18 ' )
    f.write('%.12f\n' % energy)
    f.write(MOL.save_string_xyz())
--------------------------------------------------------------------------

    Molecular point group: c1
  Charge       = 1
  Multiplicity = 1
  Basis Set: 6-31G*
    Blend: 6-31G*
  Basis Set: (6-31G* AUX)
    Blend: CC-PVDZ-JKFIT
  @DF-RKS Final Energy:  -381.44006007903960
    Total Energy =                       -381.4400600790395970
    Molecular point group: c1
  Basis Set: 6-31G*
    Blend: 6-31G*
  Basis Set: (6-31G* AUX)
    Blend: CC-PVDZ-JKFIT
  Basis Set: 6-31G*
    Blend: 6-31G*
  Basis Set: (6-31G* AUX)
    Blend: CC-PVDZ-JKFIT
  @DF-RKS Final Energy:  -381.44800741565081
    Total Energy =                       -381.4480074156508067
  Basis Set: 6-31G*
    Blend: 6-31G*
  Basis Set: (6-31G* AUX)
    Blend: CC-PVDZ-JKFIT
  Basis Set: 6-31G*
    Blend: 6-31G*
  @DF-RKS Final Energy:  -381.45272523277544
    Total Energy =                       -381.4527252327754354
  @DF-RKS Final Energy:  -381.45552623521263
    Total Energy =                       -381.4555262352126306
  @DF-RKS Final Energy:  -381.45776016053463
    Total Energy =                       -381.4577601605345762
  @DF-RKS Final Energy:  -381.45790877209600
    Total Energy =                       -381.4579087720960615
  @DF-RKS Final Energy:  -381.45792380851753
    Total Energy =                       -381.4579238085175916
  @DF-RKS Final Energy:  -381.45792635995610
    Total Energy =                       -381.4579263599560477
  @DF-RKS Final Energy:  -381.45792844139055
    Total Energy =                       -381.4579284413904929
  @DF-RKS Final Energy:  -381.45793083681565
    Total Energy =                       -381.4579308368156489
  @DF-RKS Final Energy:  -381.45793195721660
    Total Energy =                       -381.4579319572166582
  @DF-RKS Final Energy:  -381.45727763937077
    Total Energy =                       -381.4572776393707159
  @DF-RKS Final Energy:  -381.45793195721910
    Total Energy =                       -381.4579319572191025
  @DF-RKS Final Energy:  -381.45793778258781
    Total Energy =                       -381.4579377825878623
  @DF-RKS Final Energy:  -381.45794089118448
    Total Energy =                       -381.4579408911844212
  @DF-RKS Final Energy:  -381.45793969712196
    Total Energy =                       -381.4579396971219580
  @DF-RKS Final Energy:  -381.45794233546064
    Total Energy =                       -381.4579423354607002
  @DF-RKS Final Energy:  -381.45659410255803
    Total Energy =                       -381.4565941025579718
  Basis Set: (6-31G* AUX)
    Blend: CC-PVDZ-JKFIT
  Basis Set: 6-31G*
    Blend: 6-31G*
  Basis Set: (6-31G* AUX)
    Blend: CC-PVDZ-JKFIT
  @DF-RKS Final Energy:  -381.45760585907436
    Total Energy =                       -381.4576058590744196
  Basis Set: 6-31G*
    Blend: 6-31G*
  Basis Set: (6-31G* AUX)
    Blend: CC-PVDZ-JKFIT
  Charge       = 1
  Multiplicity = 1
  Basis Set: 6-31G*
    Blend: 6-31G*
  Basis Set: (6-31G* AUX)
    Blend: CC-PVDZ-JKFIT

    Orbital Energies [Eh]
    ---------------------

    Doubly Occupied:

       1A    -14.576276     2A    -14.561414     3A    -10.501520
       4A    -10.376993     5A    -10.360204     6A    -10.359472
       7A    -10.345182     8A    -10.342319     9A    -10.341974
      10A     -1.186377    11A     -1.092341    12A     -1.016751
      13A     -0.929270    14A     -0.904930    15A     -0.847376
      16A     -0.784518    17A     -0.774681    18A     -0.740915
      19A     -0.732046    20A     -0.686765    21A     -0.669344
      22A     -0.629664    23A     -0.613521    24A     -0.591899
      25A     -0.580196    26A     -0.577852    27A     -0.517903
      28A     -0.509081    29A     -0.500575    30A     -0.476698
      31A     -0.412255    32A     -0.407267

  @DF-RKS Final Energy:  -381.45794233545297

   => Energetics <=

    Nuclear Repulsion Energy =            416.3579505427617278
    One-Electron Energy =               -1327.7935093450050772
    Two-Electron Energy =                 574.3885788995173698
    DFT Exchange-Correlation Energy =     -44.3993017227269178
    Empirical Dispersion Energy =          -0.0116607100000000
    VV10 Nonlocal Energy =                  0.0000000000000000
    Total Energy =                       -381.4579423354529126
    Molecular point group: c1
  Basis Set: 6-31G*
    Blend: 6-31G*
  Basis Set: (6-31G* AUX)
    Blend: CC-PVDZ-JKFIT

  -Total Gradient:
     Atom            X                  Y                   Z
    ------   -----------------  -----------------  -----------------
       1       -0.007292241442     0.005743347420     0.000018978654
       2        0.000039726680    -0.000103147251     0.000021796312
       3        0.000000049948     0.000047106485    -0.000046989053
       4        0.000007379634    -0.000052049682    -0.000033088237
       5        0.000007773160    -0.000009765408     0.000025915136
       6       -0.000013697294    -0.000018122375     0.000051813020
       7        0.014462161907    -0.009219964059    -0.003160951561
       8        0.000035131325     0.000039892293     0.000096140314
       9       -0.000013935349     0.000001770639     0.000013548386
      10       -0.000009027317     0.000003123962     0.000001984529
      11        0.000011643496     0.000008670025     0.000018594656
      12       -0.000022718774     0.000033419428    -0.000002826397
      13       -0.016471576152     0.005161133919     0.011837401785
      14       -0.000063730131    -0.000082396865    -0.000086184738
      15        0.000021524778    -0.000005101883    -0.000029628134
      16       -0.000037448253     0.000008879104    -0.000048097984
      17        0.009442827103    -0.001529013767    -0.008751223309
      18       -0.000109711887    -0.000016916653     0.000069797244

  **** Optimization is complete! (in 1 steps) ****
    Final optimized geometry and variables:
    Molecular point group: c1

    Geometry (in Angstrom), charge = 1, multiplicity = 1:

    C            0.011689338071    -0.014581802747    -0.164353703030
    C            0.141585371752     1.198238205486     0.540864780520
    C            0.141233158362     1.198034500219     1.931411654377
    C            0.032346334376    -0.005788005791     2.633075822070
    C           -0.090141405873    -1.214490896542     1.941499804030
    C           -0.107414929877    -1.221531284333     0.551752542708
    C           -0.008084472377    -0.022638372247    -1.632382639295
    H            0.178845937878     2.151004454081     0.020680508643
    H            0.216350124380     2.138446441931     2.467499455992
    H            0.037396648366    -0.001541185760     3.718633851248
    H           -0.170599832942    -2.149912783810     2.485359367896
    H           -0.185591710139    -2.174624874159     0.036761132426
    N           -0.761101570138    -0.928664027986    -2.294676174608
    N            0.531694469615     0.980535302710    -2.312365462698
    H            0.471541998850     1.052422236892    -3.321507128317
    H            1.038745216941     1.715424990101    -1.837090634400
    H           -0.672220881198    -1.904359246630    -2.029091018902
    H           -0.783487796046    -0.848006651414    -3.308514158660

  Dipole Moment: [D]
     X:     0.8008      Y:     0.0530      Z:    -5.6920     Total:     5.7483

  Mulliken Charges: (a.u.)
   Center  Symbol    Alpha    Beta     Spin     Total
       1     C     2.92632  2.92632  0.00000  0.14735
       2     C     3.08532  3.08532  0.00000 -0.17063
       3     C     3.06162  3.06162  0.00000 -0.12324
       4     C     3.05126  3.05126  0.00000 -0.10253
       5     C     3.06254  3.06254  0.00000 -0.12507
       6     C     3.08155  3.08155  0.00000 -0.16310
       7     C     2.75130  2.75130  0.00000  0.49739
       8     H     0.41836  0.41836  0.00000  0.16328
       9     H     0.40502  0.40502  0.00000  0.18996
      10     H     0.40306  0.40306  0.00000  0.19388
      11     H     0.40490  0.40490  0.00000  0.19020
      12     H     0.42144  0.42144  0.00000  0.15712
      13     N     3.84733  3.84733  0.00000 -0.69466
      14     N     3.85994  3.85994  0.00000 -0.71987
      15     H     0.30404  0.30404  0.00000  0.39191
      16     H     0.29849  0.29849  0.00000  0.40302
      17     H     0.30326  0.30326  0.00000  0.39348
      18     H     0.31425  0.31425  0.00000  0.37150

   Total alpha = 32.00000, Total beta = 32.00000, Total charge =  1.00000

*** Psi4 exiting successfully. Buy a developer a beer!
