                               Psi4 1.2.1 release

  ==> Input File <==

--------------------------------------------------------------------------
set_num_threads(1)
set_memory('5348 MB')

set { scf_mem_safety_factor 0.7 }

set { reference rks }
set { basis cc-pVDZ }

molecule MOL {
    0 1
    noreorient
    nocom
    symmetry c1
    O    1.014300  -0.002300   0.060500
    O    2.462400  -0.107500  -0.002400
    H    0.821200  -0.823600  -0.430600
    H    2.559509  -0.749699   0.726289
}

set optking { frozen_dihedral = (" 3 1 2 4 ") }

set optking { dynamic_level = 1
 geom_maxiter = 250
 print_trajectory_xyz_file = True }

energy, wfn = optimize('B3LYP-D3', return_wfn=True)

import os
os.chdir(os.environ['HTMD_PSI4_WORKDIR'])

oeprop(wfn, 'DIPOLE', 'QUADRUPOLE', 'MULLIKEN_CHARGES')

with open('psi4out.xyz', 'w') as f:
    f.write('4 ' )
    f.write('%.12f\n' % energy)
    f.write(MOL.save_string_xyz())
--------------------------------------------------------------------------

    Molecular point group: c1
  Charge       = 0
  Multiplicity = 1
  Basis Set: CC-PVDZ
    Blend: CC-PVDZ
  Basis Set: (CC-PVDZ AUX)
    Blend: CC-PVDZ-JKFIT
  @DF-RKS Final Energy:  -151.54735313033453
    Total Energy =                       -151.5473531303345283
    Molecular point group: c1
  Basis Set: CC-PVDZ
    Blend: CC-PVDZ
  Basis Set: (CC-PVDZ AUX)
    Blend: CC-PVDZ-JKFIT
  Basis Set: CC-PVDZ
    Blend: CC-PVDZ
  Basis Set: (CC-PVDZ AUX)
    Blend: CC-PVDZ-JKFIT
  @DF-RKS Final Energy:  -151.54858799448598
    Total Energy =                       -151.5485879944859846
  Basis Set: CC-PVDZ
    Blend: CC-PVDZ
  Basis Set: (CC-PVDZ AUX)
    Blend: CC-PVDZ-JKFIT
  Basis Set: CC-PVDZ
    Blend: CC-PVDZ
  @DF-RKS Final Energy:  -151.54908830537852
    Total Energy =                       -151.5490883053785183
  Basis Set: (CC-PVDZ AUX)
    Blend: CC-PVDZ-JKFIT
  Basis Set: CC-PVDZ
    Blend: CC-PVDZ
  Basis Set: (CC-PVDZ AUX)
    Blend: CC-PVDZ-JKFIT
  @DF-RKS Final Energy:  -151.54910835125344
    Total Energy =                       -151.5491083512534374
  Basis Set: CC-PVDZ
    Blend: CC-PVDZ
  Basis Set: (CC-PVDZ AUX)
    Blend: CC-PVDZ-JKFIT
  Charge       = 0
  Multiplicity = 1
  Basis Set: CC-PVDZ
    Blend: CC-PVDZ
  Basis Set: (CC-PVDZ AUX)
    Blend: CC-PVDZ-JKFIT

    Orbital Energies [Eh]
    ---------------------

    Doubly Occupied:

       1A    -19.189268     2A    -19.189230     3A     -1.112127
       4A     -0.889275     5A     -0.541815     6A     -0.459081
       7A     -0.416475     8A     -0.299835     9A     -0.280101

  @DF-RKS Final Energy:  -151.54910963567249

   => Energetics <=

    Nuclear Repulsion Energy =             36.7762556724971432
    One-Electron Energy =                -281.5126994990826006
    Two-Electron Energy =                 107.6486946044040565
    DFT Exchange-Correlation Energy =     -14.4610309734910985
    Empirical Dispersion Energy =          -0.0003294400000000
    VV10 Nonlocal Energy =                  0.0000000000000000
    Total Energy =                       -151.5491096356724938
    Molecular point group: c1
  Basis Set: CC-PVDZ
    Blend: CC-PVDZ
  Basis Set: (CC-PVDZ AUX)
    Blend: CC-PVDZ-JKFIT

  -Total Gradient:
     Atom            X                  Y                   Z
    ------   -----------------  -----------------  -----------------
       1        0.000131133706     0.001767455873    -0.003944090736
       2        0.000176308355     0.002921980594     0.003182391081
       3       -0.000094011271    -0.001897892210     0.003184972265
       4       -0.000214032693    -0.002800718819    -0.002421783218

  **** Optimization is complete! (in 5 steps) ****
    Final optimized geometry and variables:
    Molecular point group: c1

    Geometry (in Angstrom), charge = 0, multiplicity = 1:

    O            1.016155228950    -0.012351171593     0.035590629968
    O            2.459785233867    -0.108842550298     0.024332499672
    H            0.758727410293    -0.817030196121    -0.451616120620
    H            2.622741126890    -0.744875081988     0.745481990980

  Dipole Moment: [D]
     X:    -0.1607      Y:    -2.4511      Z:     0.3980     Total:     2.4884

  Mulliken Charges: (a.u.)
   Center  Symbol    Alpha    Beta     Spin     Total
       1     O     4.08633  4.08633  0.00000 -0.17266
       2     O     4.08633  4.08633  0.00000 -0.17266
       3     H     0.41367  0.41367  0.00000  0.17266
       4     H     0.41367  0.41367  0.00000  0.17266

   Total alpha =  9.00000, Total beta =  9.00000, Total charge =  0.00000

*** Psi4 exiting successfully. Buy a developer a beer!
