                               Psi4 1.2.1 release

  ==> Input File <==

--------------------------------------------------------------------------
set_num_threads(1)
set_memory('5348 MB')

set { scf_mem_safety_factor 0.7 }

set { reference rks }
set { basis cc-pVDZ }

molecule MOL {
    0 1
    noreorient
    nocom
    symmetry c1
    O    1.050400   0.042900  -0.048100
    C    2.474100   0.047400  -0.029000
    C    3.002600  -1.068900  -0.932000
    N    4.159109  -1.747739  -0.349621
    H    0.760400   0.728400   0.578000
    H    2.809900  -0.097900   1.003200
    H    2.817400   1.026800  -0.378600
    H    3.270023  -0.658029  -1.912514
    H    2.203883  -1.797332  -1.112262
    H    4.940777  -1.095505  -0.294242
    H    4.458365  -2.488412  -0.983734
}

set optking { frozen_dihedral = (" 1 2 3 4 ") }

energy, wfn = energy('B3LYP-D3', return_wfn=True)

import os
os.chdir(os.environ['HTMD_PSI4_WORKDIR'])

oeprop(wfn, 'DIPOLE', 'QUADRUPOLE', 'MULLIKEN_CHARGES')

with open('psi4out.xyz', 'w') as f:
    f.write('11 ' )
    f.write('%.12f\n' % energy)
    f.write(MOL.save_string_xyz())
--------------------------------------------------------------------------

    Molecular point group: c1

    Geometry (in Angstrom), charge = 0, multiplicity = 1:

       Center              X                  Y                   Z               Mass
    ------------   -----------------  -----------------  -----------------  -----------------
         O            1.050400000000     0.042900000000    -0.048100000000    15.994914619560
         C            2.474100000000     0.047400000000    -0.029000000000    12.000000000000
         C            3.002600000000    -1.068900000000    -0.932000000000    12.000000000000
         N            4.159109000000    -1.747739000000    -0.349621000000    14.003074004780
         H            0.760400000000     0.728400000000     0.578000000000     1.007825032070
         H            2.809900000000    -0.097900000000     1.003200000000     1.007825032070
         H            2.817400000000     1.026800000000    -0.378600000000     1.007825032070
         H            3.270023000000    -0.658029000000    -1.912514000000     1.007825032070
         H            2.203883000000    -1.797332000000    -1.112262000000     1.007825032070
         H            4.940777000000    -1.095505000000    -0.294242000000     1.007825032070
         H            4.458365000000    -2.488412000000    -0.983734000000     1.007825032070

  Charge       = 0
  Multiplicity = 1
  Basis Set: CC-PVDZ
    Blend: CC-PVDZ
  Basis Set: (CC-PVDZ AUX)
    Blend: CC-PVDZ-JKFIT

    Orbital Energies [Eh]
    ---------------------

    Doubly Occupied:

       1A    -19.125354     2A    -14.304570     3A    -10.221932
       4A    -10.200866     5A     -1.007944     6A     -0.876598
       7A     -0.712162     8A     -0.596699     9A     -0.506978
      10A     -0.473740    11A     -0.471529    12A     -0.401383
      13A     -0.388671    14A     -0.367268    15A     -0.322838
      16A     -0.258009    17A     -0.230833

  @DF-RKS Final Energy:  -210.38736792141512

   => Energetics <=

    Nuclear Repulsion Energy =            130.6581921230295507
    One-Electron Energy =                -544.2730501181121099
    Two-Electron Energy =                 226.7210155678866101
    DFT Exchange-Correlation Energy =     -23.4887899842191672
    Empirical Dispersion Energy =          -0.0047355100000000
    VV10 Nonlocal Energy =                  0.0000000000000000
    Total Energy =                       -210.3873679214150911

  Dipole Moment: [D]
     X:     1.2319      Y:     1.2331      Z:    -0.2662     Total:     1.7632

  Mulliken Charges: (a.u.)
   Center  Symbol    Alpha    Beta     Spin     Total
       1     O     4.14025  4.14025  0.00000 -0.28050
       2     C     2.92818  2.92818  0.00000  0.14363
       3     C     2.98371  2.98371  0.00000  0.03258
       4     N     3.59148  3.59148  0.00000 -0.18297
       5     H     0.43106  0.43106  0.00000  0.13789
       6     H     0.50040  0.50040  0.00000 -0.00081
       7     H     0.50373  0.50373  0.00000 -0.00745
       8     H     0.50343  0.50343  0.00000 -0.00686
       9     H     0.48669  0.48669  0.00000  0.02662
      10     H     0.46643  0.46643  0.00000  0.06713
      11     H     0.46463  0.46463  0.00000  0.07073

   Total alpha = 17.00000, Total beta = 17.00000, Total charge =  0.00000

*** Psi4 exiting successfully. Buy a developer a beer!
