                               Psi4 1.2.1 release

  ==> Input File <==

--------------------------------------------------------------------------
set_num_threads(4)
set_memory('3000 MB')

set { scf_mem_safety_factor 0.7 }

set { reference rks }
set { basis 6-31G* }

molecule MOL {
    1 1
    noreorient
    nocom
    symmetry c1
    C   -0.000000  -0.000000  -0.177864
    C    0.036678   1.219374   0.524165
    C    0.031765   1.213120   1.915444
    C    0.000000   0.000000   2.610107
    C   -0.031765  -1.213120   1.915444
    C   -0.036678  -1.219375   0.524165
    C   -0.000000   0.000000  -1.644734
    H    0.018170   2.164705  -0.010854
    H    0.042402   2.152895   2.457886
    H    0.000000   0.000000   3.695756
    H   -0.042402  -2.152895   2.457886
    H   -0.018170  -2.164705  -0.010853
    N   -0.712590  -0.905950  -2.308461
    N    0.712590   0.905950  -2.308460
    H    0.673432   1.006470  -3.315997
    H    1.377190   1.485970  -1.813316
    H   -0.256768  -1.723526  -2.691971
    H   -1.720586  -0.854981  -2.398525
}

set optking { frozen_dihedral = (" 1 7 13 17 ") }

set optking { dynamic_level = 1
 geom_maxiter = 250
 print_trajectory_xyz_file = True }

energy, wfn = optimize('B3LYP-D3', return_wfn=True)

import os
os.chdir(os.environ['HTMD_PSI4_WORKDIR'])

oeprop(wfn, 'DIPOLE', 'QUADRUPOLE', 'MULLIKEN_CHARGES')

with open('psi4out.xyz', 'w') as f:
    f.write('18 ' )
    f.write('%.12f\n' % energy)
    f.write(MOL.save_string_xyz())
--------------------------------------------------------------------------

    Molecular point group: c1
  Charge       = 1
  Multiplicity = 1
  Basis Set: 6-31G*
    Blend: 6-31G*
  Basis Set: (6-31G* AUX)
    Blend: CC-PVDZ-JKFIT
  @DF-RKS Final Energy:  -381.43158961278044
    Total Energy =                       -381.4315896127804422
    Molecular point group: c1
  Basis Set: 6-31G*
    Blend: 6-31G*
  Basis Set: (6-31G* AUX)
    Blend: CC-PVDZ-JKFIT
  Basis Set: 6-31G*
    Blend: 6-31G*
  Basis Set: (6-31G* AUX)
    Blend: CC-PVDZ-JKFIT
  @DF-RKS Final Energy:  -381.44135416391669
    Total Energy =                       -381.4413541639166851
  Basis Set: 6-31G*
    Blend: 6-31G*
  Basis Set: (6-31G* AUX)
    Blend: CC-PVDZ-JKFIT
  Basis Set: 6-31G*
    Blend: 6-31G*
  @DF-RKS Final Energy:  -381.44669063474157
    Total Energy =                       -381.4466906347415716
  @DF-RKS Final Energy:  -380.18319087632187
    Total Energy =                       -380.1831908763218735
  @DF-RKS Final Energy:  -378.81130942736854
    Total Energy =                       -378.8113094273685419
  @DF-RKS Final Energy:  -380.18319087632136
    Total Energy =                       -380.1831908763213619
  @DF-RKS Final Energy:  -380.28148223626289
    Total Energy =                       -380.2814822362628888
  @DF-RKS Final Energy:  -380.37720176430582
    Total Energy =                       -380.3772017643058234
  @DF-RKS Final Energy:  -380.47388886770040
    Total Energy =                       -380.4738888677003956
  @DF-RKS Final Energy:  -380.56861926408681
    Total Energy =                       -380.5686192640868057
  @DF-RKS Final Energy:  -380.59614694688707
    Total Energy =                       -380.5961469468870746
  @DF-RKS Final Energy:  -380.69049716143172
    Total Energy =                       -380.6904971614317219
  @DF-RKS Final Energy:  -380.78169022099661
    Total Energy =                       -380.7816902209966088
  @DF-RKS Final Energy:  -380.87049742379941
    Total Energy =                       -380.8704974237994065
  @DF-RKS Final Energy:  -380.95542522964928
    Total Energy =                       -380.9554252296492791
  @DF-RKS Final Energy:  -381.03580545685287
    Total Energy =                       -381.0358054568528701
  @DF-RKS Final Energy:  -381.11094908322696
    Total Energy =                       -381.1109490832269557
  @DF-RKS Final Energy:  -381.18016620821135
    Total Energy =                       -381.1801662082113467
  @DF-RKS Final Energy:  -381.24275785661575
    Total Energy =                       -381.2427578566156967
  @DF-RKS Final Energy:  -381.29803187055438
    Total Energy =                       -381.2980318705544391
  @DF-RKS Final Energy:  -381.45018106917797
    Total Energy =                       -381.4501810691779724
  @DF-RKS Final Energy:  -381.44655738932153
    Total Energy =                       -381.4465573893215833
  @DF-RKS Final Energy:  -381.44981479142899
    Total Energy =                       -381.4498147914289916
  @DF-RKS Final Energy:  -381.45018106917769
    Total Energy =                       -381.4501810691776882
  @DF-RKS Final Energy:  -381.45178001140459
    Total Energy =                       -381.4517800114045940
  @DF-RKS Final Energy:  -381.45240745001468
    Total Energy =                       -381.4524074500146753
  @DF-RKS Final Energy:  -381.45264782288785
    Total Energy =                       -381.4526478228878545
  @DF-RKS Final Energy:  -381.45275422468728
    Total Energy =                       -381.4527542246872258
  @DF-RKS Final Energy:  -381.45279169779099
    Total Energy =                       -381.4527916977909854
  @DF-RKS Final Energy:  -381.45280042312049
    Total Energy =                       -381.4528004231204932
  @DF-RKS Final Energy:  -381.45280509163541
    Total Energy =                       -381.4528050916354118
  @DF-RKS Final Energy:  -381.45280854155362
    Total Energy =                       -381.4528085415536225
  @DF-RKS Final Energy:  -381.45281000549625
    Total Energy =                       -381.4528100054962465
  @DF-RKS Final Energy:  -381.45265608778220
    Total Energy =                       -381.4526560877822590
  @DF-RKS Final Energy:  -381.45277486231959
    Total Energy =                       -381.4527748623196430
  @DF-RKS Final Energy:  -381.45281000549613
    Total Energy =                       -381.4528100054961328
  @DF-RKS Final Energy:  -381.45282459317457
    Total Energy =                       -381.4528245931745687
  @DF-RKS Final Energy:  -381.45282692029008
    Total Energy =                       -381.4528269202900788
  Basis Set: (6-31G* AUX)
    Blend: CC-PVDZ-JKFIT
  Basis Set: 6-31G*
    Blend: 6-31G*
  Basis Set: (6-31G* AUX)
    Blend: CC-PVDZ-JKFIT
  @DF-RKS Final Energy:  -381.45283006136890
    Total Energy =                       -381.4528300613688998
  Basis Set: 6-31G*
    Blend: 6-31G*
  Basis Set: (6-31G* AUX)
    Blend: CC-PVDZ-JKFIT
  Charge       = 1
  Multiplicity = 1
  Basis Set: 6-31G*
    Blend: 6-31G*
  Basis Set: (6-31G* AUX)
    Blend: CC-PVDZ-JKFIT

    Orbital Energies [Eh]
    ---------------------

    Doubly Occupied:

       1A    -14.577440     2A    -14.541544     3A    -10.496894
       4A    -10.379797     5A    -10.366563     6A    -10.365807
       7A    -10.355036     8A    -10.349201     9A    -10.349029
      10A     -1.179201    11A     -1.081906    12A     -1.022046
      13A     -0.931954    14A     -0.911256    15A     -0.843195
      16A     -0.785093    17A     -0.773178    18A     -0.739904
      19A     -0.721062    20A     -0.680893    21A     -0.673931
      22A     -0.636539    23A     -0.614016    24A     -0.591079
      25A     -0.585996    26A     -0.563601    27A     -0.524483
      28A     -0.515258    29A     -0.506055    30A     -0.468111
      31A     -0.422096    32A     -0.414756

  @DF-RKS Final Energy:  -381.45283047850199

   => Energetics <=

    Nuclear Repulsion Energy =            416.2487452909480794
    One-Electron Energy =               -1327.5292774169417953
    Two-Electron Energy =                 574.2334215195734259
    DFT Exchange-Correlation Energy =     -44.3936636420818473
    Empirical Dispersion Energy =          -0.0120562300000000
    VV10 Nonlocal Energy =                  0.0000000000000000
    Total Energy =                       -381.4528304785020509
    Molecular point group: c1
  Basis Set: 6-31G*
    Blend: 6-31G*
  Basis Set: (6-31G* AUX)
    Blend: CC-PVDZ-JKFIT

  -Total Gradient:
     Atom            X                  Y                   Z
    ------   -----------------  -----------------  -----------------
       1        0.004714001413    -0.004747979923    -0.007510877247
       2        0.000038626060    -0.000014598537    -0.000059073715
       3       -0.000034432336     0.000028897507     0.000036777463
       4        0.000015968909    -0.000019859829     0.000008224357
       5       -0.000022952916     0.000005120177     0.000001766788
       6        0.000053786627    -0.000025911237    -0.000018148294
       7       -0.006461752850     0.003943259180     0.013991160866
       8       -0.000000221268     0.000020059492     0.000007040458
       9        0.000006167057     0.000002388596    -0.000010287384
      10        0.000005547263     0.000001020452    -0.000012910446
      11       -0.000009174935    -0.000011408195     0.000009541575
      12        0.000001390799    -0.000013787808    -0.000006591951
      13       -0.001803836871     0.012053864550    -0.012780498309
      14        0.000099176935     0.000004670002     0.000035364092
      15       -0.000006978716    -0.000010931059     0.000004483280
      16       -0.000068486883    -0.000002200508    -0.000026764265
      17        0.003466443869    -0.011238606630     0.006319097002
      18       -0.000005632696     0.000022005903    -0.000012296857

  **** Optimization is complete! (in 5 steps) ****
    Final optimized geometry and variables:
    Molecular point group: c1

    Geometry (in Angstrom), charge = 1, multiplicity = 1:

    C           -0.086581877075     0.109700948507    -0.069983327177
    C            0.802299590109     0.915943409036     0.675888809083
    C            1.695229369054     0.327154180585     1.560864221535
    C            1.709111233260    -1.064743951885     1.715298888273
    C            0.823821387810    -1.870226377962     0.990825411590
    C           -0.079322850566    -1.290220821881     0.108267352661
    C           -0.995902859677     0.703913045315    -1.035816053721
    H            0.757329245481     1.999106674239     0.600408515042
    H            2.369265868654     0.947188243692     2.142729672446
    H            2.408516814978    -1.522132765929     2.408494047033
    H            0.843057829295    -2.948312500266     1.112124647293
    H           -0.742635088824    -1.922777225199    -0.473410348079
    N           -2.179806059991     0.125109458046    -1.426600693353
    N           -0.662065073142     1.800864710604    -1.695384143744
    H           -1.338244797781     2.254694885283    -2.301636724866
    H            0.264279822036     2.205307810239    -1.627099020891
    H           -2.160807973981    -0.367094455689    -2.317916923629
    H           -2.557712137838    -0.503772670427    -0.722195778594

  Dipole Moment: [D]
     X:    -1.3693      Y:     1.5072      Z:    -3.3228     Total:     3.8972

  Mulliken Charges: (a.u.)
   Center  Symbol    Alpha    Beta     Spin     Total
       1     C     2.93884  2.93884  0.00000  0.12232
       2     C     3.08303  3.08303  0.00000 -0.16606
       3     C     3.06173  3.06173  0.00000 -0.12347
       4     C     3.04952  3.04952  0.00000 -0.09904
       5     C     3.06184  3.06184  0.00000 -0.12367
       6     C     3.07891  3.07891  0.00000 -0.15781
       7     C     2.77015  2.77015  0.00000  0.45970
       8     H     0.41256  0.41256  0.00000  0.17489
       9     H     0.40293  0.40293  0.00000  0.19414
      10     H     0.40078  0.40078  0.00000  0.19844
      11     H     0.40310  0.40310  0.00000  0.19380
      12     H     0.41842  0.41842  0.00000  0.16315
      13     N     3.86575  3.86575  0.00000 -0.73150
      14     N     3.83734  3.83734  0.00000 -0.67469
      15     H     0.29752  0.29752  0.00000  0.40495
      16     H     0.30077  0.30077  0.00000  0.39847
      17     H     0.30444  0.30444  0.00000  0.39112
      18     H     0.31237  0.31237  0.00000  0.37527

   Total alpha = 32.00000, Total beta = 32.00000, Total charge =  1.00000

*** Psi4 exiting successfully. Buy a developer a beer!
