                               Psi4 1.2.1 release

  ==> Input File <==

--------------------------------------------------------------------------
set_num_threads(1)
set_memory('5348 MB')

set { scf_mem_safety_factor 0.7 }

set { reference rks }
set { basis cc-pVDZ }

molecule MOL {
    0 1
    noreorient
    nocom
    symmetry c1
    O    1.141000   0.017000   0.083000
    C    2.558000   0.086000  -0.005000
    C    3.192000  -0.789000   1.067000
    O    2.342611  -1.890814   1.363503
    H    0.789000   0.590000  -0.620000
    H    2.874000   1.128000   0.115000
    H    2.871000  -0.243000  -1.001000
    H    3.362273  -0.211125   1.980786
    H    4.162568  -1.167290   0.726747
    H    2.793533  -2.412849   2.049823
}

set optking { frozen_dihedral = (" 1 2 3 4 ") }

energy, wfn = energy('B3LYP-D3', return_wfn=True)

import os
os.chdir(os.environ['HTMD_PSI4_WORKDIR'])

oeprop(wfn, 'DIPOLE', 'QUADRUPOLE', 'MULLIKEN_CHARGES')

with open('psi4out.xyz', 'w') as f:
    f.write('10 ' )
    f.write('%.12f\n' % energy)
    f.write(MOL.save_string_xyz())
--------------------------------------------------------------------------

    Molecular point group: c1

    Geometry (in Angstrom), charge = 0, multiplicity = 1:

       Center              X                  Y                   Z               Mass
    ------------   -----------------  -----------------  -----------------  -----------------
         O            1.141000000000     0.017000000000     0.083000000000    15.994914619560
         C            2.558000000000     0.086000000000    -0.005000000000    12.000000000000
         C            3.192000000000    -0.789000000000     1.067000000000    12.000000000000
         O            2.342611000000    -1.890814000000     1.363503000000    15.994914619560
         H            0.789000000000     0.590000000000    -0.620000000000     1.007825032070
         H            2.874000000000     1.128000000000     0.115000000000     1.007825032070
         H            2.871000000000    -0.243000000000    -1.001000000000     1.007825032070
         H            3.362273000000    -0.211125000000     1.980786000000     1.007825032070
         H            4.162568000000    -1.167290000000     0.726747000000     1.007825032070
         H            2.793533000000    -2.412849000000     2.049823000000     1.007825032070

  Charge       = 0
  Multiplicity = 1
  Basis Set: CC-PVDZ
    Blend: CC-PVDZ
  Basis Set: (CC-PVDZ AUX)
    Blend: CC-PVDZ-JKFIT

    Orbital Energies [Eh]
    ---------------------

    Doubly Occupied:

       1A    -19.123012     2A    -19.122967     3A    -10.226542
       4A    -10.226357     5A     -1.016439     6A     -0.995320
       7A     -0.734001     8A     -0.600120     9A     -0.525330
      10A     -0.486441    11A     -0.452608    12A     -0.413822
      13A     -0.396545    14A     -0.331801    15A     -0.321737
      16A     -0.263669    17A     -0.249050

  @DF-RKS Final Energy:  -230.24887210569165

   => Energetics <=

    Nuclear Repulsion Energy =            132.8337103578471385
    One-Electron Energy =                -577.5618492969354065
    Two-Electron Energy =                 239.0217500674820030
    DFT Exchange-Correlation Energy =     -24.5383827240854195
    Empirical Dispersion Energy =          -0.0041005100000000
    VV10 Nonlocal Energy =                  0.0000000000000000
    Total Energy =                       -230.2488721056916461

  Dipole Moment: [D]
     X:     1.8898      Y:     0.9780      Z:    -0.3214     Total:     2.1520

  Mulliken Charges: (a.u.)
   Center  Symbol    Alpha    Beta     Spin     Total
       1     O     4.13051  4.13051  0.00000 -0.26101
       2     C     2.93472  2.93472  0.00000  0.13057
       3     C     2.93487  2.93487  0.00000  0.13027
       4     O     4.13073  4.13073  0.00000 -0.26146
       5     H     0.43113  0.43113  0.00000  0.13775
       6     H     0.50274  0.50274  0.00000 -0.00548
       7     H     0.50086  0.50086  0.00000 -0.00173
       8     H     0.50074  0.50074  0.00000 -0.00149
       9     H     0.50263  0.50263  0.00000 -0.00526
      10     H     0.43108  0.43108  0.00000  0.13785

   Total alpha = 17.00000, Total beta = 17.00000, Total charge =  0.00000

*** Psi4 exiting successfully. Buy a developer a beer!
