                               Psi4 1.2.1 release

  ==> Input File <==

--------------------------------------------------------------------------
set_num_threads(1)
set_memory('5348 MB')

set { scf_mem_safety_factor 0.7 }

set { reference rks }
set { basis cc-pVDZ }

molecule MOL {
    0 1
    noreorient
    nocom
    symmetry c1
    O    1.050400   0.042900  -0.048100
    C    2.474100   0.047400  -0.029000
    C    3.002600  -1.068900  -0.932000
    N    2.747619  -2.396075  -0.374244
    H    0.760400   0.728400   0.578000
    H    2.809900  -0.097900   1.003200
    H    2.817400   1.026800  -0.378600
    H    4.078583  -0.936668  -1.094830
    H    2.531288  -0.990321  -1.918279
    H    3.284512  -2.509971   0.484974
    H    3.105328  -3.098270  -1.021714
}

set optking { frozen_dihedral = (" 1 2 3 4 ") }

energy, wfn = energy('B3LYP-D3', return_wfn=True)

import os
os.chdir(os.environ['HTMD_PSI4_WORKDIR'])

oeprop(wfn, 'DIPOLE', 'QUADRUPOLE', 'MULLIKEN_CHARGES')

with open('psi4out.xyz', 'w') as f:
    f.write('11 ' )
    f.write('%.12f\n' % energy)
    f.write(MOL.save_string_xyz())
--------------------------------------------------------------------------

    Molecular point group: c1

    Geometry (in Angstrom), charge = 0, multiplicity = 1:

       Center              X                  Y                   Z               Mass
    ------------   -----------------  -----------------  -----------------  -----------------
         O            1.050400000000     0.042900000000    -0.048100000000    15.994914619560
         C            2.474100000000     0.047400000000    -0.029000000000    12.000000000000
         C            3.002600000000    -1.068900000000    -0.932000000000    12.000000000000
         N            2.747619000000    -2.396075000000    -0.374244000000    14.003074004780
         H            0.760400000000     0.728400000000     0.578000000000     1.007825032070
         H            2.809900000000    -0.097900000000     1.003200000000     1.007825032070
         H            2.817400000000     1.026800000000    -0.378600000000     1.007825032070
         H            4.078583000000    -0.936668000000    -1.094830000000     1.007825032070
         H            2.531288000000    -0.990321000000    -1.918279000000     1.007825032070
         H            3.284512000000    -2.509971000000     0.484974000000     1.007825032070
         H            3.105328000000    -3.098270000000    -1.021714000000     1.007825032070

  Charge       = 0
  Multiplicity = 1
  Basis Set: CC-PVDZ
    Blend: CC-PVDZ
  Basis Set: (CC-PVDZ AUX)
    Blend: CC-PVDZ-JKFIT

    Orbital Energies [Eh]
    ---------------------

    Doubly Occupied:

       1A    -19.120990     2A    -14.298499     3A    -10.224789
       4A    -10.202990     5A     -1.004569     6A     -0.871923
       7A     -0.713694     8A     -0.595517     9A     -0.506351
      10A     -0.484711    11A     -0.448633    12A     -0.408424
      13A     -0.387550    14A     -0.369983    15A     -0.318418
      16A     -0.257668    17A     -0.224401

  @DF-RKS Final Energy:  -210.38881896063322

   => Energetics <=

    Nuclear Repulsion Energy =            132.2790971722556890
    One-Electron Energy =                -547.5762230461535864
    Two-Electron Energy =                 228.3986062075784389
    DFT Exchange-Correlation Energy =     -23.4853320643137593
    Empirical Dispersion Energy =          -0.0049672300000000
    VV10 Nonlocal Energy =                  0.0000000000000000
    Total Energy =                       -210.3888189606332446

  Dipole Moment: [D]
     X:     1.9592      Y:     0.8698      Z:     0.6812     Total:     2.2492

  Mulliken Charges: (a.u.)
   Center  Symbol    Alpha    Beta     Spin     Total
       1     O     4.13487  4.13487  0.00000 -0.26973
       2     C     2.92656  2.92656  0.00000  0.14687
       3     C     2.97950  2.97950  0.00000  0.04100
       4     N     3.58639  3.58639  0.00000 -0.17278
       5     H     0.43257  0.43257  0.00000  0.13485
       6     H     0.50525  0.50525  0.00000 -0.01050
       7     H     0.50387  0.50387  0.00000 -0.00774
       8     H     0.50776  0.50776  0.00000 -0.01553
       9     H     0.48902  0.48902  0.00000  0.02195
      10     H     0.46782  0.46782  0.00000  0.06436
      11     H     0.46638  0.46638  0.00000  0.06725

   Total alpha = 17.00000, Total beta = 17.00000, Total charge =  0.00000

*** Psi4 exiting successfully. Buy a developer a beer!
