                               Psi4 1.2.1 release

  ==> Input File <==

--------------------------------------------------------------------------
set_num_threads(4)
set_memory('3000 MB')

set { scf_mem_safety_factor 0.7 }

set { reference rks }
set { basis 6-31G* }

molecule MOL {
    1 1
    noreorient
    nocom
    symmetry c1
    C   -0.000000  -0.000000  -0.177864
    C    0.036678   1.219374   0.524165
    C    0.031765   1.213120   1.915444
    C    0.000000   0.000000   2.610107
    C   -0.031765  -1.213120   1.915444
    C   -0.036678  -1.219375   0.524165
    C   -0.000000   0.000000  -1.644734
    H    0.018170   2.164705  -0.010854
    H    0.042402   2.152895   2.457886
    H    0.000000   0.000000   3.695756
    H   -0.042402  -2.152895   2.457886
    H   -0.018170  -2.164705  -0.010853
    N   -0.712590  -0.905950  -2.308461
    N    0.712590   0.905950  -2.308460
    H    0.673432   1.006470  -3.315997
    H    1.377190   1.485970  -1.813316
    H   -0.746805  -1.861331  -1.977763
    H   -1.288839  -0.674037  -3.109035
}

set optking { frozen_dihedral = (" 1 7 13 17 ") }

set optking { dynamic_level = 1
 geom_maxiter = 250
 print_trajectory_xyz_file = True }

energy, wfn = optimize('B3LYP-D3', return_wfn=True)

import os
os.chdir(os.environ['HTMD_PSI4_WORKDIR'])

oeprop(wfn, 'DIPOLE', 'QUADRUPOLE', 'MULLIKEN_CHARGES')

with open('psi4out.xyz', 'w') as f:
    f.write('18 ' )
    f.write('%.12f\n' % energy)
    f.write(MOL.save_string_xyz())
--------------------------------------------------------------------------

    Molecular point group: c1
  Charge       = 1
  Multiplicity = 1
  Basis Set: 6-31G*
    Blend: 6-31G*
  Basis Set: (6-31G* AUX)
    Blend: CC-PVDZ-JKFIT
  @DF-RKS Final Energy:  -381.44769914918140
    Total Energy =                       -381.4476991491814033
    Molecular point group: c1
  Basis Set: 6-31G*
    Blend: 6-31G*
  Basis Set: (6-31G* AUX)
    Blend: CC-PVDZ-JKFIT
  Basis Set: 6-31G*
    Blend: 6-31G*
  Basis Set: (6-31G* AUX)
    Blend: CC-PVDZ-JKFIT
  @DF-RKS Final Energy:  -381.45471713896688
    Total Energy =                       -381.4547171389668279
  Basis Set: 6-31G*
    Blend: 6-31G*
  Basis Set: (6-31G* AUX)
    Blend: CC-PVDZ-JKFIT
  Basis Set: 6-31G*
    Blend: 6-31G*
  @DF-RKS Final Energy:  -381.45801616657502
    Total Energy =                       -381.4580161665750211
  @DF-RKS Final Energy:  -381.46071113337655
    Total Energy =                       -381.4607111333765488
  @DF-RKS Final Energy:  -381.46159493361432
    Total Energy =                       -381.4615949336143217
  @DF-RKS Final Energy:  -381.46171327755832
    Total Energy =                       -381.4617132775583741
  @DF-RKS Final Energy:  -381.46173173084571
    Total Energy =                       -381.4617317308457700
  Basis Set: (6-31G* AUX)
    Blend: CC-PVDZ-JKFIT
  Basis Set: 6-31G*
    Blend: 6-31G*
  Basis Set: (6-31G* AUX)
    Blend: CC-PVDZ-JKFIT
  @DF-RKS Final Energy:  -381.46173474004723
    Total Energy =                       -381.4617347400472340
  Basis Set: 6-31G*
    Blend: 6-31G*
  Basis Set: (6-31G* AUX)
    Blend: CC-PVDZ-JKFIT
  Charge       = 1
  Multiplicity = 1
  Basis Set: 6-31G*
    Blend: 6-31G*
  Basis Set: (6-31G* AUX)
    Blend: CC-PVDZ-JKFIT

    Orbital Energies [Eh]
    ---------------------

    Doubly Occupied:

       1A    -14.574926     2A    -14.565325     3A    -10.501061
       4A    -10.375808     5A    -10.358385     6A    -10.358101
       7A    -10.343411     8A    -10.341388     9A    -10.341271
      10A     -1.186870    11A     -1.094120    12A     -1.015801
      13A     -0.928236    14A     -0.903714    15A     -0.846770
      16A     -0.785464    17A     -0.773605    18A     -0.742272
      19A     -0.732767    20A     -0.685868    21A     -0.669274
      22A     -0.627592    23A     -0.618288    24A     -0.589368
      25A     -0.579554    26A     -0.576147    27A     -0.518336
      28A     -0.507504    29A     -0.499634    30A     -0.476644
      31A     -0.411460    32A     -0.406510

  @DF-RKS Final Energy:  -381.46173516117767

   => Energetics <=

    Nuclear Repulsion Energy =            416.5773380950950582
    One-Electron Energy =               -1328.2631609260674850
    Two-Electron Energy =                 574.6362926941922069
    DFT Exchange-Correlation Energy =     -44.4004115843973040
    Empirical Dispersion Energy =          -0.0117934400000000
    VV10 Nonlocal Energy =                  0.0000000000000000
    Total Energy =                       -381.4617351611776144
    Molecular point group: c1
  Basis Set: 6-31G*
    Blend: 6-31G*
  Basis Set: (6-31G* AUX)
    Blend: CC-PVDZ-JKFIT

  -Total Gradient:
     Atom            X                  Y                   Z
    ------   -----------------  -----------------  -----------------
       1       -0.005937555272     0.005928934346     0.000001252467
       2       -0.000027322030     0.000027776006     0.000031726495
       3        0.000003915860    -0.000004008703    -0.000009744722
       4        0.000006758355    -0.000001086182     0.000006907020
       5        0.000002904792     0.000003758780    -0.000006124382
       6       -0.000015222121    -0.000006501958     0.000012071460
       7        0.012466796823    -0.010586936775    -0.002429535054
       8        0.000006833186    -0.000011873842    -0.000016593113
       9        0.000002812220    -0.000002175337    -0.000004156198
      10       -0.000005909857     0.000000857084    -0.000001455912
      11       -0.000001927641    -0.000001571873    -0.000003768252
      12       -0.000001092919    -0.000000692138    -0.000012146840
      13       -0.015563206136     0.008306802518     0.009230491300
      14       -0.000030180827     0.000069719941    -0.000033420630
      15       -0.000001121034     0.000011534469     0.000003014235
      16        0.000007297471    -0.000024634444     0.000000629067
      17        0.009065630799    -0.003731289988    -0.006719593809
      18        0.000026119951     0.000014894122    -0.000065604378

  **** Optimization is complete! (in 9 steps) ****
    Final optimized geometry and variables:
    Molecular point group: c1

    Geometry (in Angstrom), charge = 1, multiplicity = 1:

    C            0.013275553345    -0.016569021339    -0.169127073519
    C            0.074961530327     1.204083808769     0.529042231454
    C            0.069526515712     1.204106839701     1.920566491924
    C            0.021956070533    -0.003397188659     2.622589387710
    C           -0.030661021865    -1.218624070195     1.933214860981
    C           -0.041052762863    -1.228968404249     0.542647138765
    C           -0.007469187941    -0.019489808903    -1.638435014512
    H            0.064151538201     2.150887031066    -0.003254165639
    H            0.092696769737     2.147334971477     2.456580361939
    H            0.022763791519     0.002276858409     3.708142160518
    H           -0.057914599652    -2.156086786793     2.478921431493
    H           -0.048311230983    -2.182973528497     0.021544559332
    N           -0.838794104805    -0.844998154061    -2.296962666640
    N            0.639730633449     0.927426793334    -2.305741245925
    H            0.574964156567     1.036414520289    -3.311504097699
    H            1.237593993554     1.578780060055    -1.813729639723
    H           -0.959783503007    -1.785987338766    -1.937373200756
    H           -0.812656141828    -0.837145581636    -3.313605519705

  Dipole Moment: [D]
     X:     0.6671      Y:    -0.0919      Z:    -5.7621     Total:     5.8014

  Mulliken Charges: (a.u.)
   Center  Symbol    Alpha    Beta     Spin     Total
       1     C     2.93723  2.93723  0.00000  0.12554
       2     C     3.08329  3.08329  0.00000 -0.16657
       3     C     3.06204  3.06204  0.00000 -0.12409
       4     C     3.05154  3.05154  0.00000 -0.10307
       5     C     3.06243  3.06243  0.00000 -0.12485
       6     C     3.08357  3.08357  0.00000 -0.16714
       7     C     2.74883  2.74883  0.00000  0.50235
       8     H     0.41575  0.41575  0.00000  0.16851
       9     H     0.40519  0.40519  0.00000  0.18962
      10     H     0.40362  0.40362  0.00000  0.19276
      11     H     0.40524  0.40524  0.00000  0.18952
      12     H     0.41961  0.41961  0.00000  0.16077
      13     N     3.84551  3.84551  0.00000 -0.69102
      14     N     3.85851  3.85851  0.00000 -0.71702
      15     H     0.30426  0.30426  0.00000  0.39149
      16     H     0.29844  0.29844  0.00000  0.40312
      17     H     0.30256  0.30256  0.00000  0.39488
      18     H     0.31240  0.31240  0.00000  0.37521

   Total alpha = 32.00000, Total beta = 32.00000, Total charge =  1.00000

*** Psi4 exiting successfully. Buy a developer a beer!
