                               Psi4 1.2.1 release

  ==> Input File <==

--------------------------------------------------------------------------
set_num_threads(1)
set_memory('5348 MB')

set { scf_mem_safety_factor 0.7 }

set { reference rks }
set { basis cc-pVDZ }

molecule MOL {
    0 1
    noreorient
    nocom
    symmetry c1
    O    1.050400   0.042900  -0.048100
    C    2.474100   0.047400  -0.029000
    C    3.002600  -1.068900  -0.932000
    N    2.547700  -2.389344  -0.499572
    H    0.760400   0.728400   0.578000
    H    2.809900  -0.097900   1.003200
    H    2.817400   1.026800  -0.378600
    H    4.098367  -1.043301  -0.951431
    H    2.673360  -0.888063  -1.961541
    H    2.954652  -2.605429   0.409922
    H    2.915383  -3.089979  -1.143132
}

set optking { frozen_dihedral = (" 1 2 3 4 ") }

energy, wfn = energy('B3LYP-D3', return_wfn=True)

import os
os.chdir(os.environ['HTMD_PSI4_WORKDIR'])

oeprop(wfn, 'DIPOLE', 'QUADRUPOLE', 'MULLIKEN_CHARGES')

with open('psi4out.xyz', 'w') as f:
    f.write('11 ' )
    f.write('%.12f\n' % energy)
    f.write(MOL.save_string_xyz())
--------------------------------------------------------------------------

    Molecular point group: c1

    Geometry (in Angstrom), charge = 0, multiplicity = 1:

       Center              X                  Y                   Z               Mass
    ------------   -----------------  -----------------  -----------------  -----------------
         O            1.050400000000     0.042900000000    -0.048100000000    15.994914619560
         C            2.474100000000     0.047400000000    -0.029000000000    12.000000000000
         C            3.002600000000    -1.068900000000    -0.932000000000    12.000000000000
         N            2.547700000000    -2.389344000000    -0.499572000000    14.003074004780
         H            0.760400000000     0.728400000000     0.578000000000     1.007825032070
         H            2.809900000000    -0.097900000000     1.003200000000     1.007825032070
         H            2.817400000000     1.026800000000    -0.378600000000     1.007825032070
         H            4.098367000000    -1.043301000000    -0.951431000000     1.007825032070
         H            2.673360000000    -0.888063000000    -1.961541000000     1.007825032070
         H            2.954652000000    -2.605429000000     0.409922000000     1.007825032070
         H            2.915383000000    -3.089979000000    -1.143132000000     1.007825032070

  Charge       = 0
  Multiplicity = 1
  Basis Set: CC-PVDZ
    Blend: CC-PVDZ
  Basis Set: (CC-PVDZ AUX)
    Blend: CC-PVDZ-JKFIT

    Orbital Energies [Eh]
    ---------------------

    Doubly Occupied:

       1A    -19.120449     2A    -14.297781     3A    -10.224692
       4A    -10.203063     5A     -1.004109     6A     -0.871142
       7A     -0.713796     8A     -0.594682     9A     -0.506045
      10A     -0.485266    11A     -0.445364    12A     -0.411827
      13A     -0.387255    14A     -0.368044    15A     -0.317465
      16A     -0.257073    17A     -0.223532

  @DF-RKS Final Energy:  -210.38843506421176

   => Energetics <=

    Nuclear Repulsion Energy =            132.6149536114856460
    One-Electron Energy =                -548.2624410881821859
    Two-Electron Energy =                 228.7490079999839452
    DFT Exchange-Correlation Energy =     -23.4849614874991666
    Empirical Dispersion Energy =          -0.0049941000000000
    VV10 Nonlocal Energy =                  0.0000000000000000
    Total Energy =                       -210.3884350642117624

  Dipole Moment: [D]
     X:     1.9508      Y:     0.7445      Z:     0.8313     Total:     2.2474

  Mulliken Charges: (a.u.)
   Center  Symbol    Alpha    Beta     Spin     Total
       1     O     4.13352  4.13352  0.00000 -0.26704
       2     C     2.92927  2.92927  0.00000  0.14147
       3     C     2.98062  2.98062  0.00000  0.03875
       4     N     3.58413  3.58413  0.00000 -0.16825
       5     H     0.43249  0.43249  0.00000  0.13502
       6     H     0.50521  0.50521  0.00000 -0.01042
       7     H     0.50303  0.50303  0.00000 -0.00606
       8     H     0.50738  0.50738  0.00000 -0.01475
       9     H     0.48990  0.48990  0.00000  0.02020
      10     H     0.46803  0.46803  0.00000  0.06395
      11     H     0.46643  0.46643  0.00000  0.06715

   Total alpha = 17.00000, Total beta = 17.00000, Total charge = -0.00000

*** Psi4 exiting successfully. Buy a developer a beer!
