                               Psi4 1.2.1 release

  ==> Input File <==

--------------------------------------------------------------------------
set_num_threads(4)
set_memory('3000 MB')

set { scf_mem_safety_factor 0.7 }

set { reference rks }
set { basis 6-31G* }

molecule MOL {
    1 1
    noreorient
    nocom
    symmetry c1
    C   -0.000000  -0.000000  -0.177864
    C    0.036678   1.219374   0.524165
    C    0.031765   1.213120   1.915444
    C    0.000000   0.000000   2.610107
    C   -0.031765  -1.213120   1.915444
    C   -0.036678  -1.219375   0.524165
    C   -0.000000   0.000000  -1.644734
    H    0.018170   2.164705  -0.010854
    H    0.042402   2.152895   2.457886
    H    0.000000   0.000000   3.695756
    H   -0.042402  -2.152895   2.457886
    H   -0.018170  -2.164705  -0.010853
    N   -0.712590  -0.905950  -2.308461
    N    0.712590   0.905950  -2.308460
    H    0.673432   1.006470  -3.315997
    H    1.377190   1.485970  -1.813316
    H   -1.129402  -1.682207  -1.811494
    H   -0.920620  -0.825999  -3.296943
}

set optking { frozen_dihedral = (" 1 7 13 17 ") }

set optking { dynamic_level = 1
 geom_maxiter = 250
 print_trajectory_xyz_file = True }

energy, wfn = optimize('B3LYP-D3', return_wfn=True)

import os
os.chdir(os.environ['HTMD_PSI4_WORKDIR'])

oeprop(wfn, 'DIPOLE', 'QUADRUPOLE', 'MULLIKEN_CHARGES')

with open('psi4out.xyz', 'w') as f:
    f.write('18 ' )
    f.write('%.12f\n' % energy)
    f.write(MOL.save_string_xyz())
--------------------------------------------------------------------------

    Molecular point group: c1
  Charge       = 1
  Multiplicity = 1
  Basis Set: 6-31G*
    Blend: 6-31G*
  Basis Set: (6-31G* AUX)
    Blend: CC-PVDZ-JKFIT
  @DF-RKS Final Energy:  -381.46616027688231
    Total Energy =                       -381.4661602768823059
    Molecular point group: c1
  Basis Set: 6-31G*
    Blend: 6-31G*
  Basis Set: (6-31G* AUX)
    Blend: CC-PVDZ-JKFIT
  Basis Set: 6-31G*
    Blend: 6-31G*
  Basis Set: (6-31G* AUX)
    Blend: CC-PVDZ-JKFIT
  @DF-RKS Final Energy:  -381.46809455517098
    Total Energy =                       -381.4680945551709215
  Basis Set: 6-31G*
    Blend: 6-31G*
  Basis Set: (6-31G* AUX)
    Blend: CC-PVDZ-JKFIT
  Basis Set: 6-31G*
    Blend: 6-31G*
  @DF-RKS Final Energy:  -381.46876381870925
    Total Energy =                       -381.4687638187093057
  @DF-RKS Final Energy:  -381.46908674717815
    Total Energy =                       -381.4690867471781530
  @DF-RKS Final Energy:  -381.46909823041017
    Total Energy =                       -381.4690982304101681
  Basis Set: (6-31G* AUX)
    Blend: CC-PVDZ-JKFIT
  Basis Set: 6-31G*
    Blend: 6-31G*
  Basis Set: (6-31G* AUX)
    Blend: CC-PVDZ-JKFIT
  @DF-RKS Final Energy:  -381.46909985121573
    Total Energy =                       -381.4690998512156739
  Basis Set: 6-31G*
    Blend: 6-31G*
  Basis Set: (6-31G* AUX)
    Blend: CC-PVDZ-JKFIT
  Charge       = 1
  Multiplicity = 1
  Basis Set: 6-31G*
    Blend: 6-31G*
  Basis Set: (6-31G* AUX)
    Blend: CC-PVDZ-JKFIT

    Orbital Energies [Eh]
    ---------------------

    Doubly Occupied:

       1A    -14.568989     2A    -14.568324     3A    -10.498259
       4A    -10.374239     5A    -10.357246     6A    -10.356490
       7A    -10.342854     8A    -10.340951     9A    -10.340665
      10A     -1.184784    11A     -1.092944    12A     -1.014816
      13A     -0.926941    14A     -0.902762    15A     -0.846006
      16A     -0.786442    17A     -0.773372    18A     -0.742744
      19A     -0.733428    20A     -0.686381    21A     -0.669246
      22A     -0.626039    23A     -0.620114    24A     -0.587887
      25A     -0.579312    26A     -0.574255    27A     -0.518737
      28A     -0.505985    29A     -0.498728    30A     -0.473121
      31A     -0.411609    32A     -0.406076

  @DF-RKS Final Energy:  -381.46909999423968

   => Energetics <=

    Nuclear Repulsion Energy =            416.8660768431784049
    One-Electron Energy =               -1328.9035183707130727
    Two-Electron Energy =                 574.9854341153255746
    DFT Exchange-Correlation Energy =     -44.4051962320306188
    Empirical Dispersion Energy =          -0.0118963500000000
    VV10 Nonlocal Energy =                  0.0000000000000000
    Total Energy =                       -381.4690999942396274
    Molecular point group: c1
  Basis Set: 6-31G*
    Blend: 6-31G*
  Basis Set: (6-31G* AUX)
    Blend: CC-PVDZ-JKFIT

  -Total Gradient:
     Atom            X                  Y                   Z
    ------   -----------------  -----------------  -----------------
       1       -0.002403257586     0.002226363734     0.000053300728
       2       -0.000011417614    -0.000003151032    -0.000009690149
       3        0.000007759434    -0.000004942040     0.000004356439
       4       -0.000007526660     0.000000605355    -0.000005439196
       5        0.000002621425     0.000003997516     0.000005918055
       6       -0.000004353590    -0.000010623931    -0.000011276279
       7        0.005112585915    -0.004493746903    -0.000335041230
       8        0.000002295237    -0.000002356280    -0.000003840508
       9       -0.000001078064     0.000000767416    -0.000003299969
      10        0.000001661302     0.000000386829    -0.000001199124
      11        0.000003869460    -0.000000979920    -0.000001868352
      12        0.000002550388     0.000000339242     0.000001574057
      13       -0.006397943571     0.005135925543     0.001027363315
      14       -0.000018205887     0.000002974588     0.000004264396
      15        0.000006117720    -0.000003520942    -0.000000294466
      16        0.000006802095    -0.000008561742     0.000000534862
      17        0.003698845068    -0.002845015075    -0.000728489369
      18        0.000000205726    -0.000004957717    -0.000013782287

  **** Optimization is complete! (in 7 steps) ****
    Final optimized geometry and variables:
    Molecular point group: c1

    Geometry (in Angstrom), charge = 1, multiplicity = 1:

    C            0.003747786146    -0.003610742573    -0.177386785193
    C            0.039713757355     1.215312327684     0.524306297583
    C            0.034107120136     1.208514905519     1.915971160391
    C            0.006703088449    -0.004041862947     2.611088274454
    C           -0.021064547033    -1.217063576048     1.916351279959
    C           -0.027477183488    -1.222221969011     0.525053343264
    C           -0.004764986248    -0.000749026981    -1.646314729294
    H            0.018070118379     2.161100503260    -0.009617643704
    H            0.041399744306     2.148660337305     2.457859112569
    H            0.006700156668    -0.003937177870     3.696700110673
    H           -0.028228496446    -2.157135139865     2.458301572662
    H           -0.005680946551    -2.170037207729    -0.006618832241
    N           -0.788275516541    -0.848670724834    -2.308841588108
    N            0.704860714975     0.907432522809    -2.308613238738
    H            0.654564714332     1.021153401204    -3.314370088708
    H            1.357451692694     1.498243742892    -1.810476607396
    H           -1.258141225655    -1.590662585876    -1.806043843959
    H           -0.733085991478    -0.958054726940    -3.315470794212

  Dipole Moment: [D]
     X:     0.2586      Y:    -0.1519      Z:    -5.7175     Total:     5.7254

  Mulliken Charges: (a.u.)
   Center  Symbol    Alpha    Beta     Spin     Total
       1     C     2.95165  2.95165  0.00000  0.09671
       2     C     3.08152  3.08152  0.00000 -0.16303
       3     C     3.06234  3.06234  0.00000 -0.12468
       4     C     3.05164  3.05164  0.00000 -0.10328
       5     C     3.06235  3.06235  0.00000 -0.12469
       6     C     3.08450  3.08450  0.00000 -0.16900
       7     C     2.72805  2.72805  0.00000  0.54390
       8     H     0.41421  0.41421  0.00000  0.17158
       9     H     0.40532  0.40532  0.00000  0.18937
      10     H     0.40388  0.40388  0.00000  0.19224
      11     H     0.40543  0.40543  0.00000  0.18915
      12     H     0.41636  0.41636  0.00000  0.16728
      13     N     3.85781  3.85781  0.00000 -0.71562
      14     N     3.86335  3.86335  0.00000 -0.72671
      15     H     0.30527  0.30527  0.00000  0.38945
      16     H     0.29933  0.29933  0.00000  0.40134
      17     H     0.30015  0.30015  0.00000  0.39969
      18     H     0.30685  0.30685  0.00000  0.38631

   Total alpha = 32.00000, Total beta = 32.00000, Total charge =  1.00000

*** Psi4 exiting successfully. Buy a developer a beer!
