                               Psi4 1.2.1 release

  ==> Input File <==

--------------------------------------------------------------------------
set_num_threads(4)
set_memory('3000 MB')

set { scf_mem_safety_factor 0.7 }

set { reference rks }
set { basis 6-31G* }

molecule MOL {
    1 1
    noreorient
    nocom
    symmetry c1
    C   -0.000000  -0.000000  -0.177864
    C    0.036678   1.219374   0.524165
    C    0.031765   1.213120   1.915444
    C    0.000000   0.000000   2.610107
    C   -0.031765  -1.213120   1.915444
    C   -0.036678  -1.219375   0.524165
    C   -0.000000   0.000000  -1.644734
    H    0.018170   2.164705  -0.010854
    H    0.042402   2.152895   2.457886
    H    0.000000   0.000000   3.695756
    H   -0.042402  -2.152895   2.457886
    H   -0.018170  -2.164705  -0.010853
    N    1.070765  -0.426605  -2.308461
    N   -1.070765   0.426605  -2.308460
    H   -1.156065   0.360564  -3.315997
    H   -1.815363   0.899563  -1.813316
    H    1.815363  -0.899563  -1.813317
    H    1.156065  -0.360563  -3.315997
}

set optking { frozen_dihedral = (" 2 1 7 13 ") }

set optking { dynamic_level = 1
 geom_maxiter = 250
 print_trajectory_xyz_file = True }

energy, wfn = optimize('B3LYP-D3', return_wfn=True)

import os
os.chdir(os.environ['HTMD_PSI4_WORKDIR'])

oeprop(wfn, 'DIPOLE', 'QUADRUPOLE', 'MULLIKEN_CHARGES')

with open('psi4out.xyz', 'w') as f:
    f.write('18 ' )
    f.write('%.12f\n' % energy)
    f.write(MOL.save_string_xyz())
--------------------------------------------------------------------------

    Molecular point group: c1
  Charge       = 1
  Multiplicity = 1
  Basis Set: 6-31G*
    Blend: 6-31G*
  Basis Set: (6-31G* AUX)
    Blend: CC-PVDZ-JKFIT
  @DF-RKS Final Energy:  -381.46261572850671
    Total Energy =                       -381.4626157285067052
    Molecular point group: c1
  Basis Set: 6-31G*
    Blend: 6-31G*
  Basis Set: (6-31G* AUX)
    Blend: CC-PVDZ-JKFIT
  Basis Set: 6-31G*
    Blend: 6-31G*
  Basis Set: (6-31G* AUX)
    Blend: CC-PVDZ-JKFIT
  @DF-RKS Final Energy:  -381.46544620403648
    Total Energy =                       -381.4654462040364820
  Basis Set: 6-31G*
    Blend: 6-31G*
  Basis Set: (6-31G* AUX)
    Blend: CC-PVDZ-JKFIT
  Basis Set: 6-31G*
    Blend: 6-31G*
  @DF-RKS Final Energy:  -381.46620566701927
    Total Energy =                       -381.4662056670192669
  @DF-RKS Final Energy:  -381.46629552285162
    Total Energy =                       -381.4662955228516239
  Basis Set: (6-31G* AUX)
    Blend: CC-PVDZ-JKFIT
  Basis Set: 6-31G*
    Blend: 6-31G*
  Basis Set: (6-31G* AUX)
    Blend: CC-PVDZ-JKFIT
  @DF-RKS Final Energy:  -381.46630349793861
    Total Energy =                       -381.4663034979386111
  Basis Set: 6-31G*
    Blend: 6-31G*
  Basis Set: (6-31G* AUX)
    Blend: CC-PVDZ-JKFIT
  Charge       = 1
  Multiplicity = 1
  Basis Set: 6-31G*
    Blend: 6-31G*
  Basis Set: (6-31G* AUX)
    Blend: CC-PVDZ-JKFIT

    Orbital Energies [Eh]
    ---------------------

    Doubly Occupied:

       1A    -14.574006     2A    -14.573996     3A    -10.501114
       4A    -10.369235     5A    -10.351000     6A    -10.350336
       7A    -10.335912     8A    -10.335372     9A    -10.335099
      10A     -1.188617    11A     -1.097666    12A     -1.010227
      13A     -0.923172    14A     -0.896873    15A     -0.845158
      16A     -0.787377    17A     -0.767651    18A     -0.751710
      19A     -0.728968    20A     -0.690584    21A     -0.667594
      22A     -0.622523    23A     -0.617996    24A     -0.579103
      25A     -0.574550    26A     -0.568638    27A     -0.516531
      28A     -0.498773    29A     -0.493205    30A     -0.477962
      31A     -0.406555    32A     -0.400226

  @DF-RKS Final Energy:  -381.46630518458642

   => Energetics <=

    Nuclear Repulsion Energy =            416.5343131003547228
    One-Electron Energy =               -1328.3791584362588765
    Two-Electron Energy =                 574.7948040858570948
    DFT Exchange-Correlation Energy =     -44.4044557945392313
    Empirical Dispersion Energy =          -0.0118081400000000
    VV10 Nonlocal Energy =                  0.0000000000000000
    Total Energy =                       -381.4663051845863606
    Molecular point group: c1
  Basis Set: 6-31G*
    Blend: 6-31G*
  Basis Set: (6-31G* AUX)
    Blend: CC-PVDZ-JKFIT

  -Total Gradient:
     Atom            X                  Y                   Z
    ------   -----------------  -----------------  -----------------
       1       -0.005894716073     0.002365788538    -0.000117117626
       2        0.004681107445    -0.000256538155     0.000093323429
       3       -0.000038420435     0.000004554110     0.000005888266
       4        0.000009545216     0.000005418782    -0.000008773477
       5        0.000031980761    -0.000010675892    -0.000000576965
       6       -0.000068830900    -0.000008477478    -0.000031549266
       7       -0.000626970854    -0.006618905229    -0.000053938378
       8       -0.000020214059     0.000000662312     0.000006329885
       9        0.000000574045     0.000000272901    -0.000000251737
      10       -0.000001167144     0.000001895179     0.000002159983
      11       -0.000002683809     0.000001377926     0.000001346108
      12        0.000017638916    -0.000001884936     0.000002993845
      13        0.001879912864     0.004509577425     0.000082285722
      14       -0.000007504160    -0.000024606663     0.000046344803
      15        0.000001593010     0.000018425566     0.000007669473
      16       -0.000000234709     0.000017305868    -0.000023165519
      17        0.000021941563    -0.000000921670    -0.000004620142
      18        0.000001189208    -0.000002735216    -0.000002257695

  **** Optimization is complete! (in 6 steps) ****
    Final optimized geometry and variables:
    Molecular point group: c1

    Geometry (in Angstrom), charge = 1, multiplicity = 1:

    C           -0.071962314958    -0.016121434014    -0.175738976642
    C           -0.027919316205     1.209324300307     0.507424700991
    C            0.021282747862     1.208435596557     1.900113867960
    C            0.029591691517    -0.000896660911     2.600560588577
    C            0.002120153071    -1.218418227981     1.914214711696
    C           -0.029774930827    -1.233743978722     0.521375375990
    C           -0.031069975950    -0.016806474944    -1.653281940732
    H           -0.022931832756     2.146021425689    -0.042744959678
    H            0.060067084078     2.151085677893     2.436524273409
    H            0.063303733692     0.005248795765     3.685652117937
    H            0.009136711665    -2.155060840313     2.462339806155
    H           -0.049484259749    -2.176775318318    -0.017785905799
    N            1.052387788637    -0.468292681381    -2.268680396475
    N           -1.045802082920     0.501842717300    -2.329823189549
    H           -1.047935295183     0.613215276832    -3.338183409558
    H           -1.877432594609     0.789523510305    -1.829168917942
    H            1.835019801581    -0.793131685977    -1.714573881025
    H            1.131402891053    -0.545449998087    -3.277223865315

  Dipole Moment: [D]
     X:     0.0548      Y:     0.0050      Z:    -6.2821     Total:     6.2823

  Mulliken Charges: (a.u.)
   Center  Symbol    Alpha    Beta     Spin     Total
       1     C     2.98551  2.98551  0.00000  0.02898
       2     C     3.07113  3.07113  0.00000 -0.14227
       3     C     3.06231  3.06231  0.00000 -0.12463
       4     C     3.05303  3.05303  0.00000 -0.10606
       5     C     3.06305  3.06305  0.00000 -0.12610
       6     C     3.07564  3.07564  0.00000 -0.15129
       7     C     2.74206  2.74206  0.00000  0.51588
       8     H     0.41332  0.41332  0.00000  0.17337
       9     H     0.40678  0.40678  0.00000  0.18645
      10     H     0.40596  0.40596  0.00000  0.18808
      11     H     0.40681  0.40681  0.00000  0.18639
      12     H     0.41356  0.41356  0.00000  0.17288
      13     N     3.84776  3.84776  0.00000 -0.69552
      14     N     3.84962  3.84962  0.00000 -0.69924
      15     H     0.30529  0.30529  0.00000  0.38942
      16     H     0.29638  0.29638  0.00000  0.40723
      17     H     0.29650  0.29650  0.00000  0.40699
      18     H     0.30528  0.30528  0.00000  0.38944

   Total alpha = 32.00000, Total beta = 32.00000, Total charge =  1.00000

*** Psi4 exiting successfully. Buy a developer a beer!
