                               Psi4 1.2.1 release

  ==> Input File <==

--------------------------------------------------------------------------
set_num_threads(1)
set_memory('5348 MB')

set { scf_mem_safety_factor 0.7 }

set { reference rks }
set { basis cc-pVDZ }

molecule MOL {
    0 1
    noreorient
    nocom
    symmetry c1
    O    1.141000   0.017000   0.083000
    C    2.558000   0.086000  -0.005000
    C    3.192000  -0.789000   1.067000
    O    4.610000  -0.719000   0.979000
    H    0.789000   0.590000  -0.620000
    H    2.874000   1.128000   0.115000
    H    2.871000  -0.243000  -1.001000
    H    2.876000  -1.830000   0.947000
    H    2.879000  -0.459000   2.064000
    H    4.923368  -1.624905   0.811600
}

set optking { frozen_dihedral = (" 2 3 4 10 ") }

energy, wfn = energy('B3LYP-D3', return_wfn=True)

import os
os.chdir(os.environ['HTMD_PSI4_WORKDIR'])

oeprop(wfn, 'DIPOLE', 'QUADRUPOLE', 'MULLIKEN_CHARGES')

with open('psi4out.xyz', 'w') as f:
    f.write('10 ' )
    f.write('%.12f\n' % energy)
    f.write(MOL.save_string_xyz())
--------------------------------------------------------------------------

    Molecular point group: c1

    Geometry (in Angstrom), charge = 0, multiplicity = 1:

       Center              X                  Y                   Z               Mass
    ------------   -----------------  -----------------  -----------------  -----------------
         O            1.141000000000     0.017000000000     0.083000000000    15.994914619560
         C            2.558000000000     0.086000000000    -0.005000000000    12.000000000000
         C            3.192000000000    -0.789000000000     1.067000000000    12.000000000000
         O            4.610000000000    -0.719000000000     0.979000000000    15.994914619560
         H            0.789000000000     0.590000000000    -0.620000000000     1.007825032070
         H            2.874000000000     1.128000000000     0.115000000000     1.007825032070
         H            2.871000000000    -0.243000000000    -1.001000000000     1.007825032070
         H            2.876000000000    -1.830000000000     0.947000000000     1.007825032070
         H            2.879000000000    -0.459000000000     2.064000000000     1.007825032070
         H            4.923368000000    -1.624905000000     0.811600000000     1.007825032070

  Charge       = 0
  Multiplicity = 1
  Basis Set: CC-PVDZ
    Blend: CC-PVDZ
  Basis Set: (CC-PVDZ AUX)
    Blend: CC-PVDZ-JKFIT

    Orbital Energies [Eh]
    ---------------------

    Doubly Occupied:

       1A    -19.133428     2A    -19.130503     3A    -10.226765
       4A    -10.223759     5A     -1.019462     6A     -1.008708
       7A     -0.730979     8A     -0.606652     9A     -0.525530
      10A     -0.491291    11A     -0.457112    12A     -0.420680
      13A     -0.395947    14A     -0.340442    15A     -0.323391
      16A     -0.268049    17A     -0.263261

  @DF-RKS Final Energy:  -230.25691657332212

   => Energetics <=

    Nuclear Repulsion Energy =            129.5668808648423180
    One-Electron Energy =                -570.8826623141123946
    Two-Electron Energy =                 235.6024621730362583
    DFT Exchange-Correlation Energy =     -24.5391465570883227
    Empirical Dispersion Energy =          -0.0044507400000000
    VV10 Nonlocal Energy =                  0.0000000000000000
    Total Energy =                       -230.2569165733221155

  Dipole Moment: [D]
     X:    -0.0272      Y:    -0.5687      Z:    -1.2545     Total:     1.3777

  Mulliken Charges: (a.u.)
   Center  Symbol    Alpha    Beta     Spin     Total
       1     O     4.14101  4.14101  0.00000 -0.28203
       2     C     2.93538  2.93538  0.00000  0.12923
       3     C     2.93748  2.93748  0.00000  0.12505
       4     O     4.14000  4.14000  0.00000 -0.28000
       5     H     0.42797  0.42797  0.00000  0.14406
       6     H     0.49774  0.49774  0.00000  0.00452
       7     H     0.50408  0.50408  0.00000 -0.00816
       8     H     0.49741  0.49741  0.00000  0.00518
       9     H     0.49160  0.49160  0.00000  0.01680
      10     H     0.42733  0.42733  0.00000  0.14535

   Total alpha = 17.00000, Total beta = 17.00000, Total charge =  0.00000

*** Psi4 exiting successfully. Buy a developer a beer!
