                               Psi4 1.2.1 release

  ==> Input File <==

--------------------------------------------------------------------------
set_num_threads(1)
set_memory('5348 MB')

set { scf_mem_safety_factor 0.7 }

set { reference rks }
set { basis cc-pVDZ }

molecule MOL {
    0 1
    noreorient
    nocom
    symmetry c1
    O    1.141000   0.017000   0.083000
    C    2.558000   0.086000  -0.005000
    C    3.192000  -0.789000   1.067000
    O    4.610000  -0.719000   0.979000
    H    0.789000   0.590000  -0.620000
    H    2.874000   1.128000   0.115000
    H    2.871000  -0.243000  -1.001000
    H    2.876000  -1.830000   0.947000
    H    2.879000  -0.459000   2.064000
    H    4.862928   0.174700   1.269195
}

set optking { frozen_dihedral = (" 2 3 4 10 ") }

energy, wfn = energy('B3LYP-D3', return_wfn=True)

import os
os.chdir(os.environ['HTMD_PSI4_WORKDIR'])

oeprop(wfn, 'DIPOLE', 'QUADRUPOLE', 'MULLIKEN_CHARGES')

with open('psi4out.xyz', 'w') as f:
    f.write('10 ' )
    f.write('%.12f\n' % energy)
    f.write(MOL.save_string_xyz())
--------------------------------------------------------------------------

    Molecular point group: c1

    Geometry (in Angstrom), charge = 0, multiplicity = 1:

       Center              X                  Y                   Z               Mass
    ------------   -----------------  -----------------  -----------------  -----------------
         O            1.141000000000     0.017000000000     0.083000000000    15.994914619560
         C            2.558000000000     0.086000000000    -0.005000000000    12.000000000000
         C            3.192000000000    -0.789000000000     1.067000000000    12.000000000000
         O            4.610000000000    -0.719000000000     0.979000000000    15.994914619560
         H            0.789000000000     0.590000000000    -0.620000000000     1.007825032070
         H            2.874000000000     1.128000000000     0.115000000000     1.007825032070
         H            2.871000000000    -0.243000000000    -1.001000000000     1.007825032070
         H            2.876000000000    -1.830000000000     0.947000000000     1.007825032070
         H            2.879000000000    -0.459000000000     2.064000000000     1.007825032070
         H            4.862928000000     0.174700000000     1.269195000000     1.007825032070

  Charge       = 0
  Multiplicity = 1
  Basis Set: CC-PVDZ
    Blend: CC-PVDZ
  Basis Set: (CC-PVDZ AUX)
    Blend: CC-PVDZ-JKFIT

    Orbital Energies [Eh]
    ---------------------

    Doubly Occupied:

       1A    -19.135207     2A    -19.133262     3A    -10.227481
       4A    -10.227282     5A     -1.021866     6A     -1.010635
       7A     -0.731373     8A     -0.615699     9A     -0.520165
      10A     -0.495615    11A     -0.453460    12A     -0.429961
      13A     -0.397950    14A     -0.342586    15A     -0.325201
      16A     -0.269739    17A     -0.266729

  @DF-RKS Final Energy:  -230.25877675447458

   => Energetics <=

    Nuclear Repulsion Energy =            129.8366253225127593
    One-Electron Energy =                -571.3497242094293824
    Two-Electron Energy =                 235.7970640138052545
    DFT Exchange-Correlation Energy =     -24.5380996213631803
    Empirical Dispersion Energy =          -0.0046422600000000
    VV10 Nonlocal Energy =                  0.0000000000000000
    Total Energy =                       -230.2587767544745532

  Dipole Moment: [D]
     X:    -0.1916      Y:     2.0289      Z:    -0.5811     Total:     2.1191

  Mulliken Charges: (a.u.)
   Center  Symbol    Alpha    Beta     Spin     Total
       1     O     4.13992  4.13992  0.00000 -0.27984
       2     C     2.94375  2.94375  0.00000  0.11250
       3     C     2.92934  2.92934  0.00000  0.14132
       4     O     4.13928  4.13928  0.00000 -0.27856
       5     H     0.42818  0.42818  0.00000  0.14364
       6     H     0.50812  0.50812  0.00000 -0.01624
       7     H     0.49803  0.49803  0.00000  0.00395
       8     H     0.48578  0.48578  0.00000  0.02843
       9     H     0.49700  0.49700  0.00000  0.00601
      10     H     0.43060  0.43060  0.00000  0.13880

   Total alpha = 17.00000, Total beta = 17.00000, Total charge = -0.00000

*** Psi4 exiting successfully. Buy a developer a beer!
