                               Psi4 1.2.1 release

  ==> Input File <==

--------------------------------------------------------------------------
set_num_threads(4)
set_memory('3000 MB')

set { scf_mem_safety_factor 0.7 }

set { reference rks }
set { basis 6-31G* }

molecule MOL {
    1 1
    noreorient
    nocom
    symmetry c1
    C   -0.000000  -0.000000  -0.177864
    C    0.036678   1.219374   0.524165
    C    0.031765   1.213120   1.915444
    C    0.000000   0.000000   2.610107
    C   -0.031765  -1.213120   1.915444
    C   -0.036678  -1.219375   0.524165
    C   -0.000000   0.000000  -1.644734
    H    0.018170   2.164705  -0.010854
    H    0.042402   2.152895   2.457886
    H    0.000000   0.000000   3.695756
    H   -0.042402  -2.152895   2.457886
    H   -0.018170  -2.164705  -0.010853
    N   -1.094470  -0.361476  -2.308461
    N    1.094470   0.361476  -2.308460
    H    1.117362   0.466897  -3.315997
    H    1.968877   0.477788  -1.813316
    H   -1.968877  -0.477787  -1.813317
    H   -1.117363  -0.466896  -3.315997
}

set optking { frozen_dihedral = (" 2 1 7 13 ") }

set optking { dynamic_level = 1
 geom_maxiter = 250
 print_trajectory_xyz_file = True }

energy, wfn = optimize('B3LYP-D3', return_wfn=True)

import os
os.chdir(os.environ['HTMD_PSI4_WORKDIR'])

oeprop(wfn, 'DIPOLE', 'QUADRUPOLE', 'MULLIKEN_CHARGES')

with open('psi4out.xyz', 'w') as f:
    f.write('18 ' )
    f.write('%.12f\n' % energy)
    f.write(MOL.save_string_xyz())
--------------------------------------------------------------------------

    Molecular point group: c1
  Charge       = 1
  Multiplicity = 1
  Basis Set: 6-31G*
    Blend: 6-31G*
  Basis Set: (6-31G* AUX)
    Blend: CC-PVDZ-JKFIT
  @DF-RKS Final Energy:  -381.46489284920261
    Total Energy =                       -381.4648928492026698
    Molecular point group: c1
  Basis Set: 6-31G*
    Blend: 6-31G*
  Basis Set: (6-31G* AUX)
    Blend: CC-PVDZ-JKFIT
  Basis Set: 6-31G*
    Blend: 6-31G*
  Basis Set: (6-31G* AUX)
    Blend: CC-PVDZ-JKFIT
  @DF-RKS Final Energy:  -381.46604716401009
    Total Energy =                       -381.4660471640101491
  Basis Set: 6-31G*
    Blend: 6-31G*
  Basis Set: (6-31G* AUX)
    Blend: CC-PVDZ-JKFIT
  Basis Set: 6-31G*
    Blend: 6-31G*
  @DF-RKS Final Energy:  -381.46627761126553
    Total Energy =                       -381.4662776112655251
  @DF-RKS Final Energy:  -381.46630052649846
    Total Energy =                       -381.4663005264984577
  Basis Set: (6-31G* AUX)
    Blend: CC-PVDZ-JKFIT
  Basis Set: 6-31G*
    Blend: 6-31G*
  Basis Set: (6-31G* AUX)
    Blend: CC-PVDZ-JKFIT
  @DF-RKS Final Energy:  -381.46630489010585
    Total Energy =                       -381.4663048901059028
  Basis Set: 6-31G*
    Blend: 6-31G*
  Basis Set: (6-31G* AUX)
    Blend: CC-PVDZ-JKFIT
  Charge       = 1
  Multiplicity = 1
  Basis Set: 6-31G*
    Blend: 6-31G*
  Basis Set: (6-31G* AUX)
    Blend: CC-PVDZ-JKFIT

    Orbital Energies [Eh]
    ---------------------

    Doubly Occupied:

       1A    -14.574013     2A    -14.574001     3A    -10.501121
       4A    -10.369241     5A    -10.350991     6A    -10.350334
       7A    -10.335903     8A    -10.335364     9A    -10.335091
      10A     -1.188625    11A     -1.097677    12A     -1.010215
      13A     -0.923164    14A     -0.896860    15A     -0.845154
      16A     -0.787381    17A     -0.767656    18A     -0.751705
      19A     -0.728970    20A     -0.690585    21A     -0.667588
      22A     -0.622519    23A     -0.617988    24A     -0.579102
      25A     -0.574546    26A     -0.568632    27A     -0.516521
      28A     -0.498773    29A     -0.493191    30A     -0.477971
      31A     -0.406547    32A     -0.400217

  @DF-RKS Final Energy:  -381.46630521197602

   => Energetics <=

    Nuclear Repulsion Energy =            416.5297964984478085
    One-Electron Energy =               -1328.3703061695807719
    Two-Electron Energy =                 574.7904407303627750
    DFT Exchange-Correlation Energy =     -44.4044289512057446
    Empirical Dispersion Energy =          -0.0118073200000000
    VV10 Nonlocal Energy =                  0.0000000000000000
    Total Energy =                       -381.4663052119759641
    Molecular point group: c1
  Basis Set: 6-31G*
    Blend: 6-31G*
  Basis Set: (6-31G* AUX)
    Blend: CC-PVDZ-JKFIT

  -Total Gradient:
     Atom            X                  Y                   Z
    ------   -----------------  -----------------  -----------------
       1        0.006016099913     0.001902828154    -0.000134232778
       2       -0.004588551524     0.000066347388     0.000108642534
       3       -0.000009500618    -0.000007342048     0.000016956934
       4       -0.000013951933     0.000017484470    -0.000006063151
       5        0.000003043490    -0.000008606903    -0.000012309731
       6        0.000006330275     0.000000666505     0.000016577700
       7        0.000185051254    -0.006587069776    -0.000065567899
       8       -0.000005334309     0.000003373560     0.000001070142
       9        0.000002394862    -0.000001149077     0.000001691440
      10        0.000004436607     0.000001088364     0.000002260181
      11        0.000001037760     0.000000956060     0.000004495097
      12        0.000005786970    -0.000002185543    -0.000004999503
      13       -0.001605034481     0.004589652460     0.000088106398
      14       -0.000034083781     0.000017432220    -0.000002515005
      15        0.000007174167    -0.000011814523     0.000002462370
      16        0.000015820306    -0.000002358199     0.000010456019
      17        0.000023488449     0.000013217109    -0.000016752144
      18        0.000000761079     0.000006860674    -0.000004432855

  **** Optimization is complete! (in 6 steps) ****
    Final optimized geometry and variables:
    Molecular point group: c1

    Geometry (in Angstrom), charge = 1, multiplicity = 1:

    C            0.070594149900    -0.020857213942    -0.175761327085
    C            0.108154567108     1.204896959158     0.507317416944
    C            0.058632203554     1.207459559877     1.900005263979
    C           -0.029552674754     0.001435798530     2.600619154378
    C           -0.082565199897    -1.215319751070     1.914412278639
    C           -0.052171669381    -1.232887844349     0.521577209211
    C            0.029707231676    -0.018790445878    -1.653364223071
    H            0.164810889423     2.139820656542    -0.042986579140
    H            0.082303922900     2.150680984220     2.436291699297
    H           -0.062706071933     0.009920033478     3.685711504819
    H           -0.151389985564    -2.149384833125     2.462665568982
    H           -0.094608979218    -2.175239897527    -0.017479353776
    N           -1.081402314549    -0.397220786835    -2.268697053394
    N            1.076752329498     0.431019231728    -2.329935875140
    H            1.086959144641     0.540342643273    -3.338470005020
    H            1.925958757392     0.661604302793    -1.829173816009
    H           -1.883855708226    -0.669018467222    -1.714478098609
    H           -1.165621592570    -0.468459929652    -3.277253765003

  Dipole Moment: [D]
     X:    -0.0535      Y:     0.0056      Z:    -6.2832     Total:     6.2834

  Mulliken Charges: (a.u.)
   Center  Symbol    Alpha    Beta     Spin     Total
       1     C     2.98556  2.98556  0.00000  0.02889
       2     C     3.07114  3.07114  0.00000 -0.14228
       3     C     3.06231  3.06231  0.00000 -0.12463
       4     C     3.05303  3.05303  0.00000 -0.10606
       5     C     3.06305  3.06305  0.00000 -0.12610
       6     C     3.07564  3.07564  0.00000 -0.15128
       7     C     2.74207  2.74207  0.00000  0.51586
       8     H     0.41330  0.41330  0.00000  0.17340
       9     H     0.40678  0.40678  0.00000  0.18645
      10     H     0.40596  0.40596  0.00000  0.18808
      11     H     0.40681  0.40681  0.00000  0.18638
      12     H     0.41356  0.41356  0.00000  0.17288
      13     N     3.84774  3.84774  0.00000 -0.69548
      14     N     3.84960  3.84960  0.00000 -0.69921
      15     H     0.30529  0.30529  0.00000  0.38942
      16     H     0.29638  0.29638  0.00000  0.40724
      17     H     0.29650  0.29650  0.00000  0.40699
      18     H     0.30528  0.30528  0.00000  0.38944

   Total alpha = 32.00000, Total beta = 32.00000, Total charge =  1.00000

*** Psi4 exiting successfully. Buy a developer a beer!
