                               Psi4 1.2.1 release

  ==> Input File <==

--------------------------------------------------------------------------
set_num_threads(1)
set_memory('5348 MB')

set { scf_mem_safety_factor 0.7 }

set { reference rks }
set { basis cc-pVDZ }

molecule MOL {
    0 1
    noreorient
    nocom
    symmetry c1
    O    1.141000   0.017000   0.083000
    C    2.558000   0.086000  -0.005000
    C    3.192000  -0.789000   1.067000
    O    4.610000  -0.719000   0.979000
    H    0.789000   0.590000  -0.620000
    H    2.874000   1.128000   0.115000
    H    2.871000  -0.243000  -1.001000
    H    2.876000  -1.830000   0.947000
    H    2.879000  -0.459000   2.064000
    H    4.944334  -0.690875   1.892409
}

set optking { frozen_dihedral = (" 2 3 4 10 ") }

energy, wfn = energy('B3LYP-D3', return_wfn=True)

import os
os.chdir(os.environ['HTMD_PSI4_WORKDIR'])

oeprop(wfn, 'DIPOLE', 'QUADRUPOLE', 'MULLIKEN_CHARGES')

with open('psi4out.xyz', 'w') as f:
    f.write('10 ' )
    f.write('%.12f\n' % energy)
    f.write(MOL.save_string_xyz())
--------------------------------------------------------------------------

    Molecular point group: c1

    Geometry (in Angstrom), charge = 0, multiplicity = 1:

       Center              X                  Y                   Z               Mass
    ------------   -----------------  -----------------  -----------------  -----------------
         O            1.141000000000     0.017000000000     0.083000000000    15.994914619560
         C            2.558000000000     0.086000000000    -0.005000000000    12.000000000000
         C            3.192000000000    -0.789000000000     1.067000000000    12.000000000000
         O            4.610000000000    -0.719000000000     0.979000000000    15.994914619560
         H            0.789000000000     0.590000000000    -0.620000000000     1.007825032070
         H            2.874000000000     1.128000000000     0.115000000000     1.007825032070
         H            2.871000000000    -0.243000000000    -1.001000000000     1.007825032070
         H            2.876000000000    -1.830000000000     0.947000000000     1.007825032070
         H            2.879000000000    -0.459000000000     2.064000000000     1.007825032070
         H            4.944334000000    -0.690875000000     1.892409000000     1.007825032070

  Charge       = 0
  Multiplicity = 1
  Basis Set: CC-PVDZ
    Blend: CC-PVDZ
  Basis Set: (CC-PVDZ AUX)
    Blend: CC-PVDZ-JKFIT

    Orbital Energies [Eh]
    ---------------------

    Doubly Occupied:

       1A    -19.132413     2A    -19.130875     3A    -10.226520
       4A    -10.224666     5A     -1.018994     6A     -1.008577
       7A     -0.731536     8A     -0.604847     9A     -0.526014
      10A     -0.487751    11A     -0.463480    12A     -0.416253
      13A     -0.395480    14A     -0.344912    15A     -0.320878
      16A     -0.266114    17A     -0.263285

  @DF-RKS Final Energy:  -230.25676971527972

   => Energetics <=

    Nuclear Repulsion Energy =            129.4982370706842687
    One-Electron Energy =                -570.7518625209838774
    Two-Electron Energy =                 235.5403894819546053
    DFT Exchange-Correlation Energy =     -24.5391149869346634
    Empirical Dispersion Energy =          -0.0044187600000000
    VV10 Nonlocal Energy =                  0.0000000000000000
    Total Energy =                       -230.2567697152796882

  Dipole Moment: [D]
     X:    -0.0060      Y:     0.8980      Z:     0.3702     Total:     0.9714

  Mulliken Charges: (a.u.)
   Center  Symbol    Alpha    Beta     Spin     Total
       1     O     4.14080  4.14080  0.00000 -0.28160
       2     C     2.93559  2.93559  0.00000  0.12882
       3     C     2.93732  2.93732  0.00000  0.12535
       4     O     4.14037  4.14037  0.00000 -0.28073
       5     H     0.42768  0.42768  0.00000  0.14464
       6     H     0.50143  0.50143  0.00000 -0.00286
       7     H     0.49750  0.49750  0.00000  0.00501
       8     H     0.49465  0.49465  0.00000  0.01070
       9     H     0.49780  0.49780  0.00000  0.00441
      10     H     0.42687  0.42687  0.00000  0.14626

   Total alpha = 17.00000, Total beta = 17.00000, Total charge =  0.00000

*** Psi4 exiting successfully. Buy a developer a beer!
