                               Psi4 1.2.1 release

  ==> Input File <==

--------------------------------------------------------------------------
set_num_threads(1)
set_memory('5348 MB')

set { scf_mem_safety_factor 0.7 }

set { reference rks }
set { basis cc-pVDZ }

molecule MOL {
    0 1
    noreorient
    nocom
    symmetry c1
    O    1.014300  -0.002300   0.060500
    O    2.462400  -0.107500  -0.002400
    H    0.821200  -0.823600  -0.430600
    H    2.573710  -0.613250   0.825043
}

set optking { frozen_dihedral = (" 3 1 2 4 ") }

set optking { dynamic_level = 1
 geom_maxiter = 250
 print_trajectory_xyz_file = True }

energy, wfn = optimize('B3LYP-D3', return_wfn=True)

import os
os.chdir(os.environ['HTMD_PSI4_WORKDIR'])

oeprop(wfn, 'DIPOLE', 'QUADRUPOLE', 'MULLIKEN_CHARGES')

with open('psi4out.xyz', 'w') as f:
    f.write('4 ' )
    f.write('%.12f\n' % energy)
    f.write(MOL.save_string_xyz())
--------------------------------------------------------------------------

    Molecular point group: c1
  Charge       = 0
  Multiplicity = 1
  Basis Set: CC-PVDZ
    Blend: CC-PVDZ
  Basis Set: (CC-PVDZ AUX)
    Blend: CC-PVDZ-JKFIT
  @DF-RKS Final Energy:  -151.54862930656159
    Total Energy =                       -151.5486293065615655
    Molecular point group: c1
  Basis Set: CC-PVDZ
    Blend: CC-PVDZ
  Basis Set: (CC-PVDZ AUX)
    Blend: CC-PVDZ-JKFIT
  Basis Set: CC-PVDZ
    Blend: CC-PVDZ
  Basis Set: (CC-PVDZ AUX)
    Blend: CC-PVDZ-JKFIT
  @DF-RKS Final Energy:  -151.54961727370886
    Total Energy =                       -151.5496172737088898
  Basis Set: CC-PVDZ
    Blend: CC-PVDZ
  Basis Set: (CC-PVDZ AUX)
    Blend: CC-PVDZ-JKFIT
  Basis Set: CC-PVDZ
    Blend: CC-PVDZ
  @DF-RKS Final Energy:  -151.55008718566700
    Total Energy =                       -151.5500871856670244
  Basis Set: (CC-PVDZ AUX)
    Blend: CC-PVDZ-JKFIT
  Basis Set: CC-PVDZ
    Blend: CC-PVDZ
  Basis Set: (CC-PVDZ AUX)
    Blend: CC-PVDZ-JKFIT
  @DF-RKS Final Energy:  -151.55010328945662
    Total Energy =                       -151.5501032894566151
  Basis Set: CC-PVDZ
    Blend: CC-PVDZ
  Basis Set: (CC-PVDZ AUX)
    Blend: CC-PVDZ-JKFIT
  Charge       = 0
  Multiplicity = 1
  Basis Set: CC-PVDZ
    Blend: CC-PVDZ
  Basis Set: (CC-PVDZ AUX)
    Blend: CC-PVDZ-JKFIT

    Orbital Energies [Eh]
    ---------------------

    Doubly Occupied:

       1A    -19.188774     2A    -19.188736     3A     -1.111623
       4A     -0.889013     5A     -0.536193     6A     -0.466453
       7A     -0.414907     8A     -0.290110     9A     -0.288286

  @DF-RKS Final Energy:  -151.55010439113028

   => Energetics <=

    Nuclear Repulsion Energy =             36.7798153575465250
    One-Electron Energy =                -281.5276982918784370
    Two-Electron Energy =                 107.6596230519545685
    DFT Exchange-Correlation Energy =     -14.4615036387528981
    Empirical Dispersion Energy =          -0.0003408700000000
    VV10 Nonlocal Energy =                  0.0000000000000000
    Total Energy =                       -151.5501043911302759
    Molecular point group: c1
  Basis Set: CC-PVDZ
    Blend: CC-PVDZ
  Basis Set: (CC-PVDZ AUX)
    Blend: CC-PVDZ-JKFIT

  -Total Gradient:
     Atom            X                  Y                   Z
    ------   -----------------  -----------------  -----------------
       1        0.000087409723     0.001209686530    -0.002698916479
       2        0.000131690146     0.002346948202     0.001797074456
       3       -0.000052768711    -0.001331840038     0.002233022596
       4       -0.000166551361    -0.002228360874    -0.001330276407

  **** Optimization is complete! (in 5 steps) ****
    Final optimized geometry and variables:
    Molecular point group: c1

    Geometry (in Angstrom), charge = 0, multiplicity = 1:

    O            1.015900552555    -0.013281202791     0.037447182520
    O            2.460208047211    -0.105933466430     0.023008962412
    H            0.767671178376    -0.820217323525    -0.450146577181
    H            2.627830221858    -0.607218007254     0.842233432248

  Dipole Moment: [D]
     X:    -0.1378      Y:    -2.2372      Z:     0.5671     Total:     2.3121

  Mulliken Charges: (a.u.)
   Center  Symbol    Alpha    Beta     Spin     Total
       1     O     4.08743  4.08743  0.00000 -0.17486
       2     O     4.08743  4.08743  0.00000 -0.17486
       3     H     0.41257  0.41257  0.00000  0.17486
       4     H     0.41257  0.41257  0.00000  0.17486

   Total alpha =  9.00000, Total beta =  9.00000, Total charge = -0.00000

*** Psi4 exiting successfully. Buy a developer a beer!
