                               Psi4 1.2.1 release

  ==> Input File <==

--------------------------------------------------------------------------
set_num_threads(1)
set_memory('5348 MB')

set { scf_mem_safety_factor 0.7 }

set { reference rks }
set { basis cc-pVDZ }

molecule MOL {
    0 1
    noreorient
    nocom
    symmetry c1
    O    1.014300  -0.002300   0.060500
    O    2.462400  -0.107500  -0.002400
    H    0.821200  -0.823600  -0.430600
    H    2.573716   0.382077  -0.839513
}

set optking { frozen_dihedral = (" 3 1 2 4 ") }

set optking { dynamic_level = 1
 geom_maxiter = 250
 print_trajectory_xyz_file = True }

energy, wfn = optimize('B3LYP-D3', return_wfn=True)

import os
os.chdir(os.environ['HTMD_PSI4_WORKDIR'])

oeprop(wfn, 'DIPOLE', 'QUADRUPOLE', 'MULLIKEN_CHARGES')

with open('psi4out.xyz', 'w') as f:
    f.write('4 ' )
    f.write('%.12f\n' % energy)
    f.write(MOL.save_string_xyz())
--------------------------------------------------------------------------

    Molecular point group: c1
  Charge       = 0
  Multiplicity = 1
  Basis Set: CC-PVDZ
    Blend: CC-PVDZ
  Basis Set: (CC-PVDZ AUX)
    Blend: CC-PVDZ-JKFIT
  @DF-RKS Final Energy:  -151.54862931506960
    Total Energy =                       -151.5486293150695758
    Molecular point group: c1
  Basis Set: CC-PVDZ
    Blend: CC-PVDZ
  Basis Set: (CC-PVDZ AUX)
    Blend: CC-PVDZ-JKFIT
  Basis Set: CC-PVDZ
    Blend: CC-PVDZ
  Basis Set: (CC-PVDZ AUX)
    Blend: CC-PVDZ-JKFIT
  @DF-RKS Final Energy:  -151.54961727578856
    Total Energy =                       -151.5496172757885631
  Basis Set: CC-PVDZ
    Blend: CC-PVDZ
  Basis Set: (CC-PVDZ AUX)
    Blend: CC-PVDZ-JKFIT
  Basis Set: CC-PVDZ
    Blend: CC-PVDZ
  @DF-RKS Final Energy:  -151.55008718436926
    Total Energy =                       -151.5500871843692607
  Basis Set: (CC-PVDZ AUX)
    Blend: CC-PVDZ-JKFIT
  Basis Set: CC-PVDZ
    Blend: CC-PVDZ
  Basis Set: (CC-PVDZ AUX)
    Blend: CC-PVDZ-JKFIT
  @DF-RKS Final Energy:  -151.55010328802319
    Total Energy =                       -151.5501032880232231
  Basis Set: CC-PVDZ
    Blend: CC-PVDZ
  Basis Set: (CC-PVDZ AUX)
    Blend: CC-PVDZ-JKFIT
  Charge       = 0
  Multiplicity = 1
  Basis Set: CC-PVDZ
    Blend: CC-PVDZ
  Basis Set: (CC-PVDZ AUX)
    Blend: CC-PVDZ-JKFIT

    Orbital Energies [Eh]
    ---------------------

    Doubly Occupied:

       1A    -19.188774     2A    -19.188736     3A     -1.111623
       4A     -0.889013     5A     -0.536193     6A     -0.466453
       7A     -0.414907     8A     -0.290110     9A     -0.288286

  @DF-RKS Final Energy:  -151.55010438969018

   => Energetics <=

    Nuclear Repulsion Energy =             36.7798153546323263
    One-Electron Energy =                -281.5276982713809844
    Two-Electron Energy =                 107.6596230349747998
    DFT Exchange-Correlation Energy =     -14.4615036379163193
    Empirical Dispersion Energy =          -0.0003408700000000
    VV10 Nonlocal Energy =                  0.0000000000000000
    Total Energy =                       -151.5501043896901763
    Molecular point group: c1
  Basis Set: CC-PVDZ
    Blend: CC-PVDZ
  Basis Set: (CC-PVDZ AUX)
    Blend: CC-PVDZ-JKFIT

  -Total Gradient:
     Atom            X                  Y                   Z
    ------   -----------------  -----------------  -----------------
       1        0.000087392753    -0.001805085885     0.002342898516
       2        0.000131692869     0.002693780646     0.001217046911
       3       -0.000052754103     0.001336856230    -0.002230025821
       4       -0.000166551709    -0.002226442156    -0.001333489072

  **** Optimization is complete! (in 5 steps) ****
    Final optimized geometry and variables:
    Molecular point group: c1

    Geometry (in Angstrom), charge = 0, multiplicity = 1:

    O            1.015900588981    -0.027804660301     0.061735820980
    O            2.460208283344    -0.084375125811    -0.013044569059
    H            0.767671160761    -0.839218152930    -0.418370100528
    H            2.627835966914     0.400074939043    -0.842334151392

  Dipole Moment: [D]
     X:    -0.1378      Y:    -0.5592      Z:    -2.2393     Total:     2.3121

  Mulliken Charges: (a.u.)
   Center  Symbol    Alpha    Beta     Spin     Total
       1     O     4.08743  4.08743  0.00000 -0.17486
       2     O     4.08743  4.08743  0.00000 -0.17486
       3     H     0.41257  0.41257  0.00000  0.17486
       4     H     0.41257  0.41257  0.00000  0.17486

   Total alpha =  9.00000, Total beta =  9.00000, Total charge = -0.00000

*** Psi4 exiting successfully. Buy a developer a beer!
