                               Psi4 1.2.1 release

  ==> Input File <==

--------------------------------------------------------------------------
set_num_threads(1)
set_memory('5348 MB')

set { scf_mem_safety_factor 0.7 }

set { reference rks }
set { basis cc-pVDZ }

molecule MOL {
    0 1
    noreorient
    nocom
    symmetry c1
    O    1.141000   0.017000   0.083000
    C    2.558000   0.086000  -0.005000
    C    3.192000  -0.789000   1.067000
    O    4.610000  -0.719000   0.979000
    H    0.789000   0.590000  -0.620000
    H    2.874000   1.128000   0.115000
    H    2.871000  -0.243000  -1.001000
    H    2.876000  -1.830000   0.947000
    H    2.879000  -0.459000   2.064000
    H    4.933982  -1.636546   0.973376
}

set optking { frozen_dihedral = (" 2 3 4 10 ") }

energy, wfn = energy('B3LYP-D3', return_wfn=True)

import os
os.chdir(os.environ['HTMD_PSI4_WORKDIR'])

oeprop(wfn, 'DIPOLE', 'QUADRUPOLE', 'MULLIKEN_CHARGES')

with open('psi4out.xyz', 'w') as f:
    f.write('10 ' )
    f.write('%.12f\n' % energy)
    f.write(MOL.save_string_xyz())
--------------------------------------------------------------------------

    Molecular point group: c1

    Geometry (in Angstrom), charge = 0, multiplicity = 1:

       Center              X                  Y                   Z               Mass
    ------------   -----------------  -----------------  -----------------  -----------------
         O            1.141000000000     0.017000000000     0.083000000000    15.994914619560
         C            2.558000000000     0.086000000000    -0.005000000000    12.000000000000
         C            3.192000000000    -0.789000000000     1.067000000000    12.000000000000
         O            4.610000000000    -0.719000000000     0.979000000000    15.994914619560
         H            0.789000000000     0.590000000000    -0.620000000000     1.007825032070
         H            2.874000000000     1.128000000000     0.115000000000     1.007825032070
         H            2.871000000000    -0.243000000000    -1.001000000000     1.007825032070
         H            2.876000000000    -1.830000000000     0.947000000000     1.007825032070
         H            2.879000000000    -0.459000000000     2.064000000000     1.007825032070
         H            4.933982000000    -1.636546000000     0.973376000000     1.007825032070

  Charge       = 0
  Multiplicity = 1
  Basis Set: CC-PVDZ
    Blend: CC-PVDZ
  Basis Set: (CC-PVDZ AUX)
    Blend: CC-PVDZ-JKFIT

    Orbital Energies [Eh]
    ---------------------

    Doubly Occupied:

       1A    -19.132883     2A    -19.130630     3A    -10.226624
       4A    -10.224125     5A     -1.019181     6A     -1.008613
       7A     -0.731228     8A     -0.605621     9A     -0.525891
      10A     -0.489757    11A     -0.460044    12A     -0.418305
      13A     -0.395637    14A     -0.342654    15A     -0.322094
      16A     -0.267036    17A     -0.263210

  @DF-RKS Final Energy:  -230.25675981511509

   => Energetics <=

    Nuclear Repulsion Energy =            129.5293062857060136
    One-Electron Energy =                -570.8120639991004737
    Two-Electron Energy =                 235.5695975500210579
    DFT Exchange-Correlation Energy =     -24.5391692117416831
    Empirical Dispersion Energy =          -0.0044304400000000
    VV10 Nonlocal Energy =                  0.0000000000000000
    Total Energy =                       -230.2567598151150889

  Dipole Moment: [D]
     X:    -0.0146      Y:    -0.5825      Z:    -1.0338     Total:     1.1867

  Mulliken Charges: (a.u.)
   Center  Symbol    Alpha    Beta     Spin     Total
       1     O     4.14093  4.14093  0.00000 -0.28185
       2     C     2.93538  2.93538  0.00000  0.12923
       3     C     2.93757  2.93757  0.00000  0.12486
       4     O     4.14017  4.14017  0.00000 -0.28034
       5     H     0.42783  0.42783  0.00000  0.14433
       6     H     0.49758  0.49758  0.00000  0.00483
       7     H     0.50275  0.50275  0.00000 -0.00550
       8     H     0.49760  0.49760  0.00000  0.00479
       9     H     0.49316  0.49316  0.00000  0.01367
      10     H     0.42701  0.42701  0.00000  0.14598

   Total alpha = 17.00000, Total beta = 17.00000, Total charge =  0.00000

*** Psi4 exiting successfully. Buy a developer a beer!
