                               Psi4 1.2.1 release

  ==> Input File <==

--------------------------------------------------------------------------
set_num_threads(4)
set_memory('3000 MB')

set { scf_mem_safety_factor 0.7 }

set { reference rks }
set { basis 6-31G* }

molecule MOL {
    1 1
    noreorient
    nocom
    symmetry c1
    C   -0.000000  -0.000000  -0.177864
    C    0.036678   1.219374   0.524165
    C    0.031765   1.213120   1.915444
    C    0.000000   0.000000   2.610107
    C   -0.031765  -1.213120   1.915444
    C   -0.036678  -1.219375   0.524165
    C   -0.000000   0.000000  -1.644734
    H    0.018170   2.164705  -0.010854
    H    0.042402   2.152895   2.457886
    H    0.000000   0.000000   3.695756
    H   -0.042402  -2.152895   2.457886
    H   -0.018170  -2.164705  -0.010853
    N   -0.712590  -0.905950  -2.308461
    N    0.712590   0.905950  -2.308460
    H    0.673432   1.006470  -3.315997
    H    1.377190   1.485970  -1.813316
    H   -1.368813  -1.493894  -1.811494
    H   -0.681929  -0.999048  -3.317004
}

set optking { frozen_dihedral = (" 1 7 13 17 ") }

set optking { dynamic_level = 1
 geom_maxiter = 250
 print_trajectory_xyz_file = True }

energy, wfn = optimize('B3LYP-D3', return_wfn=True)

import os
os.chdir(os.environ['HTMD_PSI4_WORKDIR'])

oeprop(wfn, 'DIPOLE', 'QUADRUPOLE', 'MULLIKEN_CHARGES')

with open('psi4out.xyz', 'w') as f:
    f.write('18 ' )
    f.write('%.12f\n' % energy)
    f.write(MOL.save_string_xyz())
--------------------------------------------------------------------------

    Molecular point group: c1
  Charge       = 1
  Multiplicity = 1
  Basis Set: 6-31G*
    Blend: 6-31G*
  Basis Set: (6-31G* AUX)
    Blend: CC-PVDZ-JKFIT
  @DF-RKS Final Energy:  -381.47050316594027
    Total Energy =                       -381.4705031659402721
    Molecular point group: c1
  Basis Set: 6-31G*
    Blend: 6-31G*
  Basis Set: (6-31G* AUX)
    Blend: CC-PVDZ-JKFIT
  Basis Set: 6-31G*
    Blend: 6-31G*
  Basis Set: (6-31G* AUX)
    Blend: CC-PVDZ-JKFIT
  @DF-RKS Final Energy:  -381.47050593506475
    Total Energy =                       -381.4705059350647502
  Basis Set: 6-31G*
    Blend: 6-31G*
  Basis Set: (6-31G* AUX)
    Blend: CC-PVDZ-JKFIT
  Charge       = 1
  Multiplicity = 1
  Basis Set: 6-31G*
    Blend: 6-31G*
  Basis Set: (6-31G* AUX)
    Blend: CC-PVDZ-JKFIT

    Orbital Energies [Eh]
    ---------------------

    Doubly Occupied:

       1A    -14.568106     2A    -14.568034     3A    -10.497215
       4A    -10.373200     5A    -10.356137     6A    -10.356096
       7A    -10.342923     8A    -10.340400     9A    -10.340340
      10A     -1.183858    11A     -1.092012    12A     -1.014249
      13A     -0.926573    14A     -0.902176    15A     -0.845440
      16A     -0.785753    17A     -0.773393    18A     -0.741748
      19A     -0.732907    20A     -0.688765    21A     -0.669047
      22A     -0.625481    23A     -0.617381    24A     -0.586971
      25A     -0.579001    26A     -0.572864    27A     -0.518327
      28A     -0.505454    29A     -0.498064    30A     -0.472863
      31A     -0.411643    32A     -0.405678

  @DF-RKS Final Energy:  -381.47050709441822

   => Energetics <=

    Nuclear Repulsion Energy =            416.9212221020372908
    One-Electron Energy =               -1329.0513444227844957
    Two-Electron Energy =                 575.0775256137039833
    DFT Exchange-Correlation Energy =     -44.4059788273750158
    Empirical Dispersion Energy =          -0.0119315600000000
    VV10 Nonlocal Energy =                  0.0000000000000000
    Total Energy =                       -381.4705070944182239
    Molecular point group: c1
  Basis Set: 6-31G*
    Blend: 6-31G*
  Basis Set: (6-31G* AUX)
    Blend: CC-PVDZ-JKFIT

  -Total Gradient:
     Atom            X                  Y                   Z
    ------   -----------------  -----------------  -----------------
       1       -0.000051652169     0.000017386784     0.000023103628
       2        0.000012581213    -0.000004173842    -0.000024955373
       3       -0.000012792452    -0.000019051592     0.000002625503
       4        0.000007362553     0.000006040806    -0.000003546951
       5       -0.000013705137    -0.000000367030    -0.000009192869
       6        0.000006193873     0.000033424684     0.000014431438
       7        0.000127090593    -0.000101900041    -0.000032290456
       8       -0.000004552392     0.000001813379     0.000008995858
       9       -0.000003013818     0.000001465547    -0.000002215239
      10        0.000000062748    -0.000000085360    -0.000000660779
      11       -0.000002164351    -0.000001009230     0.000000317517
      12        0.000003671041    -0.000014087461    -0.000001466663
      13       -0.000222424741     0.000237305957     0.000018059422
      14        0.000012253493    -0.000005799257    -0.000002921568
      15        0.000030891334    -0.000003551497    -0.000003409388
      16       -0.000013558025     0.000007678333    -0.000009575424
      17        0.000124528400    -0.000134606783     0.000023471401
      18       -0.000000739847    -0.000019955187    -0.000022520133

  **** Optimization is complete! (in 3 steps) ****
    Final optimized geometry and variables:
    Molecular point group: c1

    Geometry (in Angstrom), charge = 1, multiplicity = 1:

    C            0.000573807407     0.000006013024    -0.177908828154
    C            0.036691936617     1.219300985889     0.524137705859
    C            0.031367198411     1.212851505187     1.915449974384
    C           -0.000016476584    -0.000296673452     2.609998535187
    C           -0.031058317093    -1.213345945988     1.915208560150
    C           -0.035608991877    -1.219414532440     0.523928800626
    C           -0.000243521556     0.000424457799    -1.644983156734
    H            0.017869112531     2.164706772796    -0.010724228094
    H            0.041313931745     2.152597574573     2.457974965673
    H           -0.000361983761    -0.000396197538     3.695650997880
    H           -0.041358685434    -2.153194739694     2.457546850458
    H           -0.016570232103    -2.164806896963    -0.011054250560
    N           -0.716001164737    -0.903134246772    -2.308233496371
    N            0.712630014244     0.906127840949    -2.308685518912
    H            0.674342256053     1.006306382791    -3.316314309314
    H            1.377307610785     1.485934775804    -1.813402122964
    H           -1.373756007650    -1.489214989388    -1.811072588112
    H           -0.677240486997    -1.004955086576    -3.315701891002

  Dipole Moment: [D]
     X:     0.0086      Y:    -0.0094      Z:    -5.7350     Total:     5.7350

  Mulliken Charges: (a.u.)
   Center  Symbol    Alpha    Beta     Spin     Total
       1     C     2.95710  2.95710  0.00000  0.08580
       2     C     3.08203  3.08203  0.00000 -0.16406
       3     C     3.06248  3.06248  0.00000 -0.12496
       4     C     3.05149  3.05149  0.00000 -0.10297
       5     C     3.06249  3.06249  0.00000 -0.12497
       6     C     3.08220  3.08220  0.00000 -0.16440
       7     C     2.72186  2.72186  0.00000  0.55627
       8     H     0.41418  0.41418  0.00000  0.17163
       9     H     0.40545  0.40545  0.00000  0.18911
      10     H     0.40390  0.40390  0.00000  0.19221
      11     H     0.40545  0.40545  0.00000  0.18910
      12     H     0.41430  0.41430  0.00000  0.17141
      13     N     3.86317  3.86317  0.00000 -0.72635
      14     N     3.86330  3.86330  0.00000 -0.72660
      15     H     0.30569  0.30569  0.00000  0.38863
      16     H     0.29963  0.29963  0.00000  0.40073
      17     H     0.29962  0.29962  0.00000  0.40077
      18     H     0.30567  0.30567  0.00000  0.38866

   Total alpha = 32.00000, Total beta = 32.00000, Total charge =  1.00000

*** Psi4 exiting successfully. Buy a developer a beer!
