                               Psi4 1.2.1 release

  ==> Input File <==

--------------------------------------------------------------------------
set_num_threads(1)
set_memory('5348 MB')

set { scf_mem_safety_factor 0.7 }

set { reference rks }
set { basis cc-pVDZ }

molecule MOL {
    0 1
    noreorient
    nocom
    symmetry c1
    O    1.050400   0.042900  -0.048100
    C    2.474100   0.047400  -0.029000
    C    3.002600  -1.068900  -0.932000
    N    4.462700  -1.072400  -1.006800
    H    0.760400   0.728400   0.578000
    H    2.809900  -0.097900   1.003200
    H    2.817400   1.026800  -0.378600
    H    2.581000  -0.963300  -1.938400
    H    2.653800  -2.036400  -0.553400
    H    4.830949  -1.789475  -0.382558
    H    4.811705  -0.183941  -0.647512
}

set optking { frozen_dihedral = (" 2 3 4 10 ") }

energy, wfn = energy('B3LYP-D3', return_wfn=True)

import os
os.chdir(os.environ['HTMD_PSI4_WORKDIR'])

oeprop(wfn, 'DIPOLE', 'QUADRUPOLE', 'MULLIKEN_CHARGES')

with open('psi4out.xyz', 'w') as f:
    f.write('11 ' )
    f.write('%.12f\n' % energy)
    f.write(MOL.save_string_xyz())
--------------------------------------------------------------------------

    Molecular point group: c1

    Geometry (in Angstrom), charge = 0, multiplicity = 1:

       Center              X                  Y                   Z               Mass
    ------------   -----------------  -----------------  -----------------  -----------------
         O            1.050400000000     0.042900000000    -0.048100000000    15.994914619560
         C            2.474100000000     0.047400000000    -0.029000000000    12.000000000000
         C            3.002600000000    -1.068900000000    -0.932000000000    12.000000000000
         N            4.462700000000    -1.072400000000    -1.006800000000    14.003074004780
         H            0.760400000000     0.728400000000     0.578000000000     1.007825032070
         H            2.809900000000    -0.097900000000     1.003200000000     1.007825032070
         H            2.817400000000     1.026800000000    -0.378600000000     1.007825032070
         H            2.581000000000    -0.963300000000    -1.938400000000     1.007825032070
         H            2.653800000000    -2.036400000000    -0.553400000000     1.007825032070
         H            4.830949000000    -1.789475000000    -0.382558000000     1.007825032070
         H            4.811705000000    -0.183941000000    -0.647512000000     1.007825032070

  Charge       = 0
  Multiplicity = 1
  Basis Set: CC-PVDZ
    Blend: CC-PVDZ
  Basis Set: (CC-PVDZ AUX)
    Blend: CC-PVDZ-JKFIT

    Orbital Energies [Eh]
    ---------------------

    Doubly Occupied:

       1A    -19.129706     2A    -14.306013     3A    -10.227663
       4A    -10.201806     5A     -1.012329     6A     -0.879122
       7A     -0.711590     8A     -0.605355     9A     -0.507621
      10A     -0.492621    11A     -0.451314    12A     -0.414387
      13A     -0.395965    14A     -0.358239    15A     -0.329427
      16A     -0.264464    17A     -0.233380

  @DF-RKS Final Energy:  -210.38939413870153

   => Energetics <=

    Nuclear Repulsion Energy =            130.8401887307365712
    One-Electron Energy =                -544.5345477390618498
    Two-Electron Energy =                 226.7971507503024213
    DFT Exchange-Correlation Energy =     -23.4872007906787239
    Empirical Dispersion Energy =          -0.0049850900000000
    VV10 Nonlocal Energy =                  0.0000000000000000
    Total Energy =                       -210.3893941387015332

  Dipole Moment: [D]
     X:     0.5313      Y:     1.0613      Z:     2.1711     Total:     2.4743

  Mulliken Charges: (a.u.)
   Center  Symbol    Alpha    Beta     Spin     Total
       1     O     4.13773  4.13773  0.00000 -0.27546
       2     C     2.94392  2.94392  0.00000  0.11215
       3     C     2.97870  2.97870  0.00000  0.04261
       4     N     3.59018  3.59018  0.00000 -0.18035
       5     H     0.43065  0.43065  0.00000  0.13870
       6     H     0.50544  0.50544  0.00000 -0.01087
       7     H     0.49968  0.49968  0.00000  0.00064
       8     H     0.48963  0.48963  0.00000  0.02073
       9     H     0.49286  0.49286  0.00000  0.01428
      10     H     0.46302  0.46302  0.00000  0.07397
      11     H     0.46819  0.46819  0.00000  0.06361

   Total alpha = 17.00000, Total beta = 17.00000, Total charge =  0.00000

*** Psi4 exiting successfully. Buy a developer a beer!
