                               Psi4 1.2.1 release

  ==> Input File <==

--------------------------------------------------------------------------
set_num_threads(1)
set_memory('5348 MB')

set { scf_mem_safety_factor 0.7 }

set { reference rks }
set { basis cc-pVDZ }

molecule MOL {
    0 1
    noreorient
    nocom
    symmetry c1
    O    1.014300  -0.002300   0.060500
    O    2.462400  -0.107500  -0.002400
    H    0.821200  -0.823600  -0.430600
    H    2.614604  -0.131920   0.961485
}

set optking { frozen_dihedral = (" 3 1 2 4 ") }

set optking { dynamic_level = 1
 geom_maxiter = 250
 print_trajectory_xyz_file = True }

energy, wfn = optimize('B3LYP-D3', return_wfn=True)

import os
os.chdir(os.environ['HTMD_PSI4_WORKDIR'])

oeprop(wfn, 'DIPOLE', 'QUADRUPOLE', 'MULLIKEN_CHARGES')

with open('psi4out.xyz', 'w') as f:
    f.write('4 ' )
    f.write('%.12f\n' % energy)
    f.write(MOL.save_string_xyz())
--------------------------------------------------------------------------

    Molecular point group: c1
  Charge       = 0
  Multiplicity = 1
  Basis Set: CC-PVDZ
    Blend: CC-PVDZ
  Basis Set: (CC-PVDZ AUX)
    Blend: CC-PVDZ-JKFIT
  @DF-RKS Final Energy:  -151.55032955840929
    Total Energy =                       -151.5503295584092882
    Molecular point group: c1
  Basis Set: CC-PVDZ
    Blend: CC-PVDZ
  Basis Set: (CC-PVDZ AUX)
    Blend: CC-PVDZ-JKFIT
  Basis Set: CC-PVDZ
    Blend: CC-PVDZ
  Basis Set: (CC-PVDZ AUX)
    Blend: CC-PVDZ-JKFIT
  @DF-RKS Final Energy:  -151.55076155293312
    Total Energy =                       -151.5507615529330963
  Basis Set: CC-PVDZ
    Blend: CC-PVDZ
  Basis Set: (CC-PVDZ AUX)
    Blend: CC-PVDZ-JKFIT
  Basis Set: CC-PVDZ
    Blend: CC-PVDZ
  @DF-RKS Final Energy:  -151.55113401114980
    Total Energy =                       -151.5511340111497702
  Basis Set: (CC-PVDZ AUX)
    Blend: CC-PVDZ-JKFIT
  Basis Set: CC-PVDZ
    Blend: CC-PVDZ
  Basis Set: (CC-PVDZ AUX)
    Blend: CC-PVDZ-JKFIT
  @DF-RKS Final Energy:  -151.55113821217020
    Total Energy =                       -151.5511382121702013
  Basis Set: CC-PVDZ
    Blend: CC-PVDZ
  Basis Set: (CC-PVDZ AUX)
    Blend: CC-PVDZ-JKFIT
  Charge       = 0
  Multiplicity = 1
  Basis Set: CC-PVDZ
    Blend: CC-PVDZ
  Basis Set: (CC-PVDZ AUX)
    Blend: CC-PVDZ-JKFIT

    Orbital Energies [Eh]
    ---------------------

    Doubly Occupied:

       1A    -19.187109     2A    -19.187070     3A     -1.108490
       4A     -0.889336     5A     -0.518282     6A     -0.484406
       7A     -0.407556     8A     -0.315117     9A     -0.265173

  @DF-RKS Final Energy:  -151.55113867814921

   => Energetics <=

    Nuclear Repulsion Energy =             36.7171027360825377
    One-Electron Energy =                -281.4269522405329553
    Two-Electron Energy =                 107.6211999881819992
    DFT Exchange-Correlation Energy =     -14.4621342818808234
    Empirical Dispersion Energy =          -0.0003548800000000
    VV10 Nonlocal Energy =                  0.0000000000000000
    Total Energy =                       -151.5511386781492149
    Molecular point group: c1
  Basis Set: CC-PVDZ
    Blend: CC-PVDZ
  Basis Set: (CC-PVDZ AUX)
    Blend: CC-PVDZ-JKFIT

  -Total Gradient:
     Atom            X                  Y                   Z
    ------   -----------------  -----------------  -----------------
       1        0.000005709080    -0.000072447593     0.000142054560
       2       -0.000016882247    -0.000158113760    -0.000013355750
       3        0.000008648819     0.000076577602    -0.000120648984
       4        0.000001999524     0.000143125955    -0.000001978875

  **** Optimization is complete! (in 5 steps) ****
    Final optimized geometry and variables:
    Molecular point group: c1

    Geometry (in Angstrom), charge = 0, multiplicity = 1:

    O            1.012963913828    -0.014125830449     0.044719240294
    O            2.463504905102    -0.100336302462     0.015946786765
    H            0.788880346944    -0.826000393724    -0.443170708479
    H            2.647154834126    -0.124857473364     0.971489681420

  Dipole Moment: [D]
     X:    -0.0703      Y:    -1.4536      Z:     0.8128     Total:     1.6669

  Mulliken Charges: (a.u.)
   Center  Symbol    Alpha    Beta     Spin     Total
       1     O     4.08993  4.08993  0.00000 -0.17986
       2     O     4.08993  4.08993  0.00000 -0.17986
       3     H     0.41007  0.41007  0.00000  0.17986
       4     H     0.41007  0.41007  0.00000  0.17986

   Total alpha =  9.00000, Total beta =  9.00000, Total charge = -0.00000

*** Psi4 exiting successfully. Buy a developer a beer!
