                               Psi4 1.2.1 release

  ==> Input File <==

--------------------------------------------------------------------------
set_num_threads(1)
set_memory('5348 MB')

set { scf_mem_safety_factor 0.7 }

set { reference rks }
set { basis cc-pVDZ }

molecule MOL {
    0 1
    noreorient
    nocom
    symmetry c1
    O    1.050400   0.042900  -0.048100
    C    2.474100   0.047400  -0.029000
    C    3.002600  -1.068900  -0.932000
    N    4.462700  -1.072400  -1.006800
    H    0.760400   0.728400   0.578000
    H    2.809900  -0.097900   1.003200
    H    2.817400   1.026800  -0.378600
    H    2.581000  -0.963300  -1.938400
    H    2.653800  -2.036400  -0.553400
    H    4.817294  -0.158859  -0.725398
    H    4.740987  -1.191600  -1.980760
}

set optking { frozen_dihedral = (" 2 3 4 10 ") }

energy, wfn = energy('B3LYP-D3', return_wfn=True)

import os
os.chdir(os.environ['HTMD_PSI4_WORKDIR'])

oeprop(wfn, 'DIPOLE', 'QUADRUPOLE', 'MULLIKEN_CHARGES')

with open('psi4out.xyz', 'w') as f:
    f.write('11 ' )
    f.write('%.12f\n' % energy)
    f.write(MOL.save_string_xyz())
--------------------------------------------------------------------------

    Molecular point group: c1

    Geometry (in Angstrom), charge = 0, multiplicity = 1:

       Center              X                  Y                   Z               Mass
    ------------   -----------------  -----------------  -----------------  -----------------
         O            1.050400000000     0.042900000000    -0.048100000000    15.994914619560
         C            2.474100000000     0.047400000000    -0.029000000000    12.000000000000
         C            3.002600000000    -1.068900000000    -0.932000000000    12.000000000000
         N            4.462700000000    -1.072400000000    -1.006800000000    14.003074004780
         H            0.760400000000     0.728400000000     0.578000000000     1.007825032070
         H            2.809900000000    -0.097900000000     1.003200000000     1.007825032070
         H            2.817400000000     1.026800000000    -0.378600000000     1.007825032070
         H            2.581000000000    -0.963300000000    -1.938400000000     1.007825032070
         H            2.653800000000    -2.036400000000    -0.553400000000     1.007825032070
         H            4.817294000000    -0.158859000000    -0.725398000000     1.007825032070
         H            4.740987000000    -1.191600000000    -1.980760000000     1.007825032070

  Charge       = 0
  Multiplicity = 1
  Basis Set: CC-PVDZ
    Blend: CC-PVDZ
  Basis Set: (CC-PVDZ AUX)
    Blend: CC-PVDZ-JKFIT

    Orbital Energies [Eh]
    ---------------------

    Doubly Occupied:

       1A    -19.130561     2A    -14.303449     3A    -10.229429
       4A    -10.201138     5A     -1.012975     6A     -0.877259
       7A     -0.712733     8A     -0.603259     9A     -0.509798
      10A     -0.475932    11A     -0.468280    12A     -0.413518
      13A     -0.382858    14A     -0.371570    15A     -0.325850
      16A     -0.264603    17A     -0.229378

  @DF-RKS Final Energy:  -210.38780322798843

   => Energetics <=

    Nuclear Repulsion Energy =            130.6941668143573736
    One-Electron Energy =                -544.2558471132140312
    Two-Electron Energy =                 226.6665607717871751
    DFT Exchange-Correlation Energy =     -23.4877836009189416
    Empirical Dispersion Energy =          -0.0049001000000000
    VV10 Nonlocal Energy =                  0.0000000000000000
    Total Energy =                       -210.3878032279884280

  Dipole Moment: [D]
     X:     0.3978      Y:     1.9287      Z:     0.0643     Total:     1.9703

  Mulliken Charges: (a.u.)
   Center  Symbol    Alpha    Beta     Spin     Total
       1     O     4.13750  4.13750  0.00000 -0.27500
       2     C     2.94134  2.94134  0.00000  0.11731
       3     C     2.97766  2.97766  0.00000  0.04467
       4     N     3.59259  3.59259  0.00000 -0.18517
       5     H     0.43013  0.43013  0.00000  0.13973
       6     H     0.49681  0.49681  0.00000  0.00637
       7     H     0.50385  0.50385  0.00000 -0.00769
       8     H     0.49772  0.49772  0.00000  0.00456
       9     H     0.49042  0.49042  0.00000  0.01917
      10     H     0.46921  0.46921  0.00000  0.06157
      11     H     0.46276  0.46276  0.00000  0.07447

   Total alpha = 17.00000, Total beta = 17.00000, Total charge =  0.00000

*** Psi4 exiting successfully. Buy a developer a beer!
