                               Psi4 1.2.1 release

  ==> Input File <==

--------------------------------------------------------------------------
set_num_threads(1)
set_memory('5348 MB')

set { scf_mem_safety_factor 0.7 }

set { reference rks }
set { basis cc-pVDZ }

molecule MOL {
    0 1
    noreorient
    nocom
    symmetry c1
    O    1.050400   0.042900  -0.048100
    C    2.474100   0.047400  -0.029000
    C    3.002600  -1.068900  -0.932000
    N    3.638285  -0.545852  -2.140232
    H    0.760400   0.728400   0.578000
    H    2.809900  -0.097900   1.003200
    H    2.817400   1.026800  -0.378600
    H    2.183132  -1.742944  -1.207454
    H    3.723979  -1.675674  -0.372989
    H    2.936586  -0.083849  -2.717859
    H    3.983893  -1.329205  -2.694455
}

set optking { frozen_dihedral = (" 1 2 3 4 ") }

energy, wfn = energy('B3LYP-D3', return_wfn=True)

import os
os.chdir(os.environ['HTMD_PSI4_WORKDIR'])

oeprop(wfn, 'DIPOLE', 'QUADRUPOLE', 'MULLIKEN_CHARGES')

with open('psi4out.xyz', 'w') as f:
    f.write('11 ' )
    f.write('%.12f\n' % energy)
    f.write(MOL.save_string_xyz())
--------------------------------------------------------------------------

    Molecular point group: c1

    Geometry (in Angstrom), charge = 0, multiplicity = 1:

       Center              X                  Y                   Z               Mass
    ------------   -----------------  -----------------  -----------------  -----------------
         O            1.050400000000     0.042900000000    -0.048100000000    15.994914619560
         C            2.474100000000     0.047400000000    -0.029000000000    12.000000000000
         C            3.002600000000    -1.068900000000    -0.932000000000    12.000000000000
         N            3.638285000000    -0.545852000000    -2.140232000000    14.003074004780
         H            0.760400000000     0.728400000000     0.578000000000     1.007825032070
         H            2.809900000000    -0.097900000000     1.003200000000     1.007825032070
         H            2.817400000000     1.026800000000    -0.378600000000     1.007825032070
         H            2.183132000000    -1.742944000000    -1.207454000000     1.007825032070
         H            3.723979000000    -1.675674000000    -0.372989000000     1.007825032070
         H            2.936586000000    -0.083849000000    -2.717859000000     1.007825032070
         H            3.983893000000    -1.329205000000    -2.694455000000     1.007825032070

  Charge       = 0
  Multiplicity = 1
  Basis Set: CC-PVDZ
    Blend: CC-PVDZ
  Basis Set: (CC-PVDZ AUX)
    Blend: CC-PVDZ-JKFIT

    Orbital Energies [Eh]
    ---------------------

    Doubly Occupied:

       1A    -19.125306     2A    -14.300978     3A    -10.221789
       4A    -10.200753     5A     -1.008472     6A     -0.873675
       7A     -0.712601     8A     -0.595357     9A     -0.510368
      10A     -0.483837    11A     -0.447594    12A     -0.410654
      13A     -0.390499    14A     -0.363447    15A     -0.324028
      16A     -0.259789    17A     -0.227143

  @DF-RKS Final Energy:  -210.38755596384391

   => Energetics <=

    Nuclear Repulsion Energy =            131.3634301573360119
    One-Electron Energy =                -545.7048508702223444
    Two-Electron Energy =                 227.4490061819328162
    DFT Exchange-Correlation Energy =     -23.4903725428903982
    Empirical Dispersion Energy =          -0.0047688900000000
    VV10 Nonlocal Energy =                  0.0000000000000000
    Total Energy =                       -210.3875559638439370

  Dipole Moment: [D]
     X:    -0.1016      Y:     0.1177      Z:     0.3600     Total:     0.3922

  Mulliken Charges: (a.u.)
   Center  Symbol    Alpha    Beta     Spin     Total
       1     O     4.14184  4.14184  0.00000 -0.28368
       2     C     2.92919  2.92919  0.00000  0.14162
       3     C     2.97925  2.97925  0.00000  0.04150
       4     N     3.59378  3.59378  0.00000 -0.18757
       5     H     0.43171  0.43171  0.00000  0.13659
       6     H     0.50263  0.50263  0.00000 -0.00526
       7     H     0.50003  0.50003  0.00000 -0.00006
       8     H     0.49695  0.49695  0.00000  0.00610
       9     H     0.49495  0.49495  0.00000  0.01011
      10     H     0.46334  0.46334  0.00000  0.07332
      11     H     0.46633  0.46633  0.00000  0.06733

   Total alpha = 17.00000, Total beta = 17.00000, Total charge =  0.00000

*** Psi4 exiting successfully. Buy a developer a beer!
