                               Psi4 1.2.1 release

  ==> Input File <==

--------------------------------------------------------------------------
set_num_threads(1)
set_memory('5348 MB')

set { scf_mem_safety_factor 0.7 }

set { reference rks }
set { basis cc-pVDZ }

molecule MOL {
    0 1
    noreorient
    nocom
    symmetry c1
    O    1.141000   0.017000   0.083000
    C    2.558000   0.086000  -0.005000
    C    3.192000  -0.789000   1.067000
    O    4.610000  -0.719000   0.979000
    H    0.789000   0.590000  -0.620000
    H    2.874000   1.128000   0.115000
    H    2.871000  -0.243000  -1.001000
    H    2.876000  -1.830000   0.947000
    H    2.879000  -0.459000   2.064000
    H    4.840603   0.225923   0.950207
}

set optking { frozen_dihedral = (" 2 3 4 10 ") }

energy, wfn = energy('B3LYP-D3', return_wfn=True)

import os
os.chdir(os.environ['HTMD_PSI4_WORKDIR'])

oeprop(wfn, 'DIPOLE', 'QUADRUPOLE', 'MULLIKEN_CHARGES')

with open('psi4out.xyz', 'w') as f:
    f.write('10 ' )
    f.write('%.12f\n' % energy)
    f.write(MOL.save_string_xyz())
--------------------------------------------------------------------------

    Molecular point group: c1

    Geometry (in Angstrom), charge = 0, multiplicity = 1:

       Center              X                  Y                   Z               Mass
    ------------   -----------------  -----------------  -----------------  -----------------
         O            1.141000000000     0.017000000000     0.083000000000    15.994914619560
         C            2.558000000000     0.086000000000    -0.005000000000    12.000000000000
         C            3.192000000000    -0.789000000000     1.067000000000    12.000000000000
         O            4.610000000000    -0.719000000000     0.979000000000    15.994914619560
         H            0.789000000000     0.590000000000    -0.620000000000     1.007825032070
         H            2.874000000000     1.128000000000     0.115000000000     1.007825032070
         H            2.871000000000    -0.243000000000    -1.001000000000     1.007825032070
         H            2.876000000000    -1.830000000000     0.947000000000     1.007825032070
         H            2.879000000000    -0.459000000000     2.064000000000     1.007825032070
         H            4.840603000000     0.225923000000     0.950207000000     1.007825032070

  Charge       = 0
  Multiplicity = 1
  Basis Set: CC-PVDZ
    Blend: CC-PVDZ
  Basis Set: (CC-PVDZ AUX)
    Blend: CC-PVDZ-JKFIT

    Orbital Energies [Eh]
    ---------------------

    Doubly Occupied:

       1A    -19.135824     2A    -19.134611     3A    -10.231356
       4A    -10.227237     5A     -1.023268     6A     -1.011577
       7A     -0.732209     8A     -0.620182     9A     -0.518394
      10A     -0.495066    11A     -0.460032    12A     -0.428220
      13A     -0.398556    14A     -0.348101    15A     -0.324317
      16A     -0.269568    17A     -0.268209

  @DF-RKS Final Energy:  -230.25834675519138

   => Energetics <=

    Nuclear Repulsion Energy =            129.9635792205225471
    One-Electron Energy =                -571.5578797303417105
    Two-Electron Energy =                 235.8785275589888784
    DFT Exchange-Correlation Energy =     -24.5379260143611155
    Empirical Dispersion Energy =          -0.0046477900000000
    VV10 Nonlocal Energy =                  0.0000000000000000
    Total Energy =                       -230.2583467551914111

  Dipole Moment: [D]
     X:    -0.2887      Y:     2.0921      Z:    -1.0821     Total:     2.3730

  Mulliken Charges: (a.u.)
   Center  Symbol    Alpha    Beta     Spin     Total
       1     O     4.13866  4.13866  0.00000 -0.27731
       2     C     2.95094  2.95094  0.00000  0.09812
       3     C     2.92456  2.92456  0.00000  0.15088
       4     O     4.13867  4.13867  0.00000 -0.27735
       5     H     0.42810  0.42810  0.00000  0.14380
       6     H     0.50683  0.50683  0.00000 -0.01366
       7     H     0.49786  0.49786  0.00000  0.00427
       8     H     0.48590  0.48590  0.00000  0.02820
       9     H     0.49680  0.49680  0.00000  0.00640
      10     H     0.43167  0.43167  0.00000  0.13666

   Total alpha = 17.00000, Total beta = 17.00000, Total charge = -0.00000

*** Psi4 exiting successfully. Buy a developer a beer!
