                               Psi4 1.2.1 release

  ==> Input File <==

--------------------------------------------------------------------------
set_num_threads(1)
set_memory('5348 MB')

set { scf_mem_safety_factor 0.7 }

set { reference rks }
set { basis cc-pVDZ }

molecule MOL {
    0 1
    noreorient
    nocom
    symmetry c1
    O    1.014300  -0.002300   0.060500
    O    2.462400  -0.107500  -0.002400
    H    0.821200  -0.823600  -0.430600
    H    2.654257   0.614709   0.625646
}

set optking { frozen_dihedral = (" 3 1 2 4 ") }

energy, wfn = energy('B3LYP-D3', return_wfn=True)

import os
os.chdir(os.environ['HTMD_PSI4_WORKDIR'])

oeprop(wfn, 'DIPOLE', 'QUADRUPOLE', 'MULLIKEN_CHARGES')

with open('psi4out.xyz', 'w') as f:
    f.write('4 ' )
    f.write('%.12f\n' % energy)
    f.write(MOL.save_string_xyz())
--------------------------------------------------------------------------

    Molecular point group: c1

    Geometry (in Angstrom), charge = 0, multiplicity = 1:

       Center              X                  Y                   Z               Mass
    ------------   -----------------  -----------------  -----------------  -----------------
         O            1.014300000000    -0.002300000000     0.060500000000    15.994914619560
         O            2.462400000000    -0.107500000000    -0.002400000000    15.994914619560
         H            0.821200000000    -0.823600000000    -0.430600000000     1.007825032070
         H            2.654257000000     0.614709000000     0.625646000000     1.007825032070

  Charge       = 0
  Multiplicity = 1
  Basis Set: CC-PVDZ
    Blend: CC-PVDZ
  Basis Set: (CC-PVDZ AUX)
    Blend: CC-PVDZ-JKFIT

    Orbital Energies [Eh]
    ---------------------

    Doubly Occupied:

       1A    -19.185416     2A    -19.185376     3A     -1.109401
       4A     -0.886445     5A     -0.503655     6A     -0.494418
       7A     -0.391130     8A     -0.355852     9A     -0.242581

  @DF-RKS Final Energy:  -151.54973054899204

   => Energetics <=

    Nuclear Repulsion Energy =             36.7832445940323183
    One-Electron Energy =                -281.5722871009452319
    Two-Electron Energy =                 107.7029584063068057
    DFT Exchange-Correlation Energy =     -14.4633269583859274
    Empirical Dispersion Energy =          -0.0003194900000000
    VV10 Nonlocal Energy =                  0.0000000000000000
    Total Energy =                       -151.5497305489920450

  Dipole Moment: [D]
     X:    -0.0022      Y:    -0.1731      Z:     0.2394     Total:     0.2955

  Mulliken Charges: (a.u.)
   Center  Symbol    Alpha    Beta     Spin     Total
       1     O     4.09131  4.09131  0.00000 -0.18263
       2     O     4.09129  4.09129  0.00000 -0.18259
       3     H     0.40869  0.40869  0.00000  0.18263
       4     H     0.40871  0.40871  0.00000  0.18259

   Total alpha =  9.00000, Total beta =  9.00000, Total charge = -0.00000

*** Psi4 exiting successfully. Buy a developer a beer!
