                               Psi4 1.2.1 release

  ==> Input File <==

--------------------------------------------------------------------------
set_num_threads(4)
set_memory('3000 MB')

set { scf_mem_safety_factor 0.7 }

set { reference rks }
set { basis 6-31G* }

molecule MOL {
    1 1
    noreorient
    nocom
    symmetry c1
    C   -0.000000  -0.000000  -0.177864
    C    0.036678   1.219374   0.524165
    C    0.031765   1.213120   1.915444
    C    0.000000   0.000000   2.610107
    C   -0.031765  -1.213120   1.915444
    C   -0.036678  -1.219375   0.524165
    C   -0.000000   0.000000  -1.644734
    H    0.018170   2.164705  -0.010854
    H    0.042402   2.152895   2.457886
    H    0.000000   0.000000   3.695756
    H   -0.042402  -2.152895   2.457886
    H   -0.018170  -2.164705  -0.010853
    N   -0.712590  -0.905950  -2.308461
    N    0.712590   0.905950  -2.308460
    H    0.673432   1.006470  -3.315997
    H    1.377190   1.485970  -1.813316
    H   -0.427399  -1.876454  -2.300041
    H   -1.581647  -0.684645  -2.780192
}

set optking { frozen_dihedral = (" 1 7 13 17 ") }

set optking { dynamic_level = 1
 geom_maxiter = 250
 print_trajectory_xyz_file = True }

energy, wfn = optimize('B3LYP-D3', return_wfn=True)

import os
os.chdir(os.environ['HTMD_PSI4_WORKDIR'])

oeprop(wfn, 'DIPOLE', 'QUADRUPOLE', 'MULLIKEN_CHARGES')

with open('psi4out.xyz', 'w') as f:
    f.write('18 ' )
    f.write('%.12f\n' % energy)
    f.write(MOL.save_string_xyz())
--------------------------------------------------------------------------

    Molecular point group: c1
  Charge       = 1
  Multiplicity = 1
  Basis Set: 6-31G*
    Blend: 6-31G*
  Basis Set: (6-31G* AUX)
    Blend: CC-PVDZ-JKFIT
  @DF-RKS Final Energy:  -381.42729734804072
    Total Energy =                       -381.4272973480407245
    Molecular point group: c1
  Basis Set: 6-31G*
    Blend: 6-31G*
  Basis Set: (6-31G* AUX)
    Blend: CC-PVDZ-JKFIT
  Basis Set: 6-31G*
    Blend: 6-31G*
  Basis Set: (6-31G* AUX)
    Blend: CC-PVDZ-JKFIT
  @DF-RKS Final Energy:  -381.43441013877896
    Total Energy =                       -381.4344101387789010
  Basis Set: 6-31G*
    Blend: 6-31G*
  Basis Set: (6-31G* AUX)
    Blend: CC-PVDZ-JKFIT
  Basis Set: 6-31G*
    Blend: 6-31G*
  @DF-RKS Final Energy:  -381.43989846735190
    Total Energy =                       -381.4398984673518385
  @DF-RKS Final Energy:  -381.44533682533705
    Total Energy =                       -381.4453368253371082
  @DF-RKS Final Energy:  -381.44729587155422
    Total Energy =                       -381.4472958715542177
  @DF-RKS Final Energy:  -381.45232937882878
    Total Energy =                       -381.4523293788287788
  @DF-RKS Final Energy:  -381.44729587155706
    Total Energy =                       -381.4472958715570030
  @DF-RKS Final Energy:  -381.45349635338488
    Total Energy =                       -381.4534963533848213
  @DF-RKS Final Energy:  -381.45491202226549
    Total Energy =                       -381.4549120222654324
  @DF-RKS Final Energy:  -381.45605840751978
    Total Energy =                       -381.4560584075197198
  @DF-RKS Final Energy:  -381.45693819724289
    Total Energy =                       -381.4569381972429483
  @DF-RKS Final Energy:  -381.45744848132551
    Total Energy =                       -381.4574484813255708
  @DF-RKS Final Energy:  -381.45756146692872
    Total Energy =                       -381.4575614669286665
  Basis Set: (6-31G* AUX)
    Blend: CC-PVDZ-JKFIT
  Basis Set: 6-31G*
    Blend: 6-31G*
  Basis Set: (6-31G* AUX)
    Blend: CC-PVDZ-JKFIT
  @DF-RKS Final Energy:  -381.45757798538511
    Total Energy =                       -381.4575779853851145
  Basis Set: 6-31G*
    Blend: 6-31G*
  Basis Set: (6-31G* AUX)
    Blend: CC-PVDZ-JKFIT
  Charge       = 1
  Multiplicity = 1
  Basis Set: 6-31G*
    Blend: 6-31G*
  Basis Set: (6-31G* AUX)
    Blend: CC-PVDZ-JKFIT

    Orbital Energies [Eh]
    ---------------------

    Doubly Occupied:

       1A    -14.577716     2A    -14.553803     3A    -10.496571
       4A    -10.372534     5A    -10.359285     6A    -10.355501
       7A    -10.347741     8A    -10.342591     9A    -10.340599
      10A     -1.181679    11A     -1.086862    12A     -1.015414
      13A     -0.928854    14A     -0.903438    15A     -0.842550
      16A     -0.778188    17A     -0.771764    18A     -0.736640
      19A     -0.725155    20A     -0.694887    21A     -0.668259
      22A     -0.626291    23A     -0.606334    24A     -0.581329
      25A     -0.580552    26A     -0.565428    27A     -0.517417
      28A     -0.507232    29A     -0.498595    30A     -0.478425
      31A     -0.414645    32A     -0.406993

  @DF-RKS Final Energy:  -381.45757881432723

   => Energetics <=

    Nuclear Repulsion Energy =            416.4232629019082310
    One-Electron Energy =               -1328.0945069800966394
    Two-Electron Energy =                 574.6209700298198868
    DFT Exchange-Correlation Energy =     -44.3955776559585971
    Empirical Dispersion Energy =          -0.0117271100000000
    VV10 Nonlocal Energy =                  0.0000000000000000
    Total Energy =                       -381.4575788143271780
    Molecular point group: c1
  Basis Set: 6-31G*
    Blend: 6-31G*
  Basis Set: (6-31G* AUX)
    Blend: CC-PVDZ-JKFIT

  -Total Gradient:
     Atom            X                  Y                   Z
    ------   -----------------  -----------------  -----------------
       1       -0.010312131193     0.000594244658     0.000060041996
       2        0.000020951093     0.000026862141     0.000036534727
       3       -0.000015357588    -0.000001532689    -0.000006672847
       4       -0.000006050644     0.000008706657    -0.000009962622
       5        0.000001584756     0.000003223442    -0.000018259514
       6        0.000004632206     0.000016247066     0.000019283560
       7        0.017192867613     0.001144463037    -0.004090806301
       8       -0.000001209123    -0.000026606860    -0.000000806985
       9        0.000006188233    -0.000018081310    -0.000002068312
      10        0.000007716785    -0.000000289739    -0.000002580144
      11        0.000002081574     0.000013120036    -0.000008656389
      12        0.000017702534    -0.000014280223    -0.000011186585
      13       -0.012150854008    -0.008082757684     0.015988514816
      14        0.000106462444     0.000103676102     0.000008091162
      15        0.000000039751    -0.000000914572     0.000009545303
      16        0.000014808716    -0.000068390047    -0.000039186884
      17        0.005113405922     0.006317885249    -0.011950153495
      18       -0.000006222573    -0.000021940860     0.000008169486

  **** Optimization is complete! (in 9 steps) ****
    Final optimized geometry and variables:
    Molecular point group: c1

    Geometry (in Angstrom), charge = 1, multiplicity = 1:

    C            0.034311970149    -0.013652174054    -0.155644605748
    C            0.554351888318     1.094840657631     0.548793140292
    C            0.538460343873     1.099723401347     1.936802943334
    C            0.014373856999     0.002763152859     2.632518207198
    C           -0.488117760929    -1.104531482823     1.941350579362
    C           -0.475378326174    -1.123033523294     0.551442258470
    C            0.014096481476    -0.026216049507    -1.609068707033
    H            1.011708804490     1.923530755566     0.014679929407
    H            0.946343605425     1.945810909267     2.480040291607
    H            0.002569416064     0.011029770232     3.718247515284
    H           -0.897635010708    -1.948067145934     2.487399828221
    H           -0.893051354226    -1.963128796970     0.007469773312
    N           -0.062832631916    -1.217212655168    -2.271254898010
    N           -0.153993278627     1.104048911776    -2.284583274188
    H           -0.099548499458     1.144486309096    -3.296285688647
    H           -0.387515272297     1.965014566447    -1.803598664550
    H            0.761131875904    -1.813354220321    -2.230591377470
    H           -0.377700108364    -1.150712386152    -3.237636250840

  Dipole Moment: [D]
     X:     0.4190      Y:     0.7190      Z:    -5.5946     Total:     5.6562

  Mulliken Charges: (a.u.)
   Center  Symbol    Alpha    Beta     Spin     Total
       1     C     2.95079  2.95079  0.00000  0.09841
       2     C     3.08463  3.08463  0.00000 -0.16926
       3     C     3.06274  3.06274  0.00000 -0.12548
       4     C     3.04973  3.04973  0.00000 -0.09946
       5     C     3.06261  3.06261  0.00000 -0.12522
       6     C     3.07163  3.07163  0.00000 -0.14325
       7     C     2.75683  2.75683  0.00000  0.48633
       8     H     0.41547  0.41547  0.00000  0.16906
       9     H     0.40495  0.40495  0.00000  0.19011
      10     H     0.40259  0.40259  0.00000  0.19482
      11     H     0.40443  0.40443  0.00000  0.19114
      12     H     0.40417  0.40417  0.00000  0.19167
      13     N     3.85804  3.85804  0.00000 -0.71608
      14     N     3.84889  3.84889  0.00000 -0.69777
      15     H     0.30472  0.30472  0.00000  0.39057
      16     H     0.29931  0.29931  0.00000  0.40138
      17     H     0.30246  0.30246  0.00000  0.39507
      18     H     0.31602  0.31602  0.00000  0.36797

   Total alpha = 32.00000, Total beta = 32.00000, Total charge =  1.00000

*** Psi4 exiting successfully. Buy a developer a beer!
