                               Psi4 1.2.1 release

  ==> Input File <==

--------------------------------------------------------------------------
set_num_threads(1)
set_memory('5348 MB')

set { scf_mem_safety_factor 0.7 }

set { reference rks }
set { basis cc-pVDZ }

molecule MOL {
    0 1
    noreorient
    nocom
    symmetry c1
    O    1.050400   0.042900  -0.048100
    C    2.474100   0.047400  -0.029000
    C    3.002600  -1.068900  -0.932000
    N    4.462700  -1.072400  -1.006800
    H    0.760400   0.728400   0.578000
    H    2.809900  -0.097900   1.003200
    H    2.817400   1.026800  -0.378600
    H    2.581000  -0.963300  -1.938400
    H    2.653800  -2.036400  -0.553400
    H    4.846334  -0.714656  -0.132542
    H    4.755720  -0.415090  -1.729527
}

set optking { frozen_dihedral = (" 2 3 4 10 ") }

energy, wfn = energy('B3LYP-D3', return_wfn=True)

import os
os.chdir(os.environ['HTMD_PSI4_WORKDIR'])

oeprop(wfn, 'DIPOLE', 'QUADRUPOLE', 'MULLIKEN_CHARGES')

with open('psi4out.xyz', 'w') as f:
    f.write('11 ' )
    f.write('%.12f\n' % energy)
    f.write(MOL.save_string_xyz())
--------------------------------------------------------------------------

    Molecular point group: c1

    Geometry (in Angstrom), charge = 0, multiplicity = 1:

       Center              X                  Y                   Z               Mass
    ------------   -----------------  -----------------  -----------------  -----------------
         O            1.050400000000     0.042900000000    -0.048100000000    15.994914619560
         C            2.474100000000     0.047400000000    -0.029000000000    12.000000000000
         C            3.002600000000    -1.068900000000    -0.932000000000    12.000000000000
         N            4.462700000000    -1.072400000000    -1.006800000000    14.003074004780
         H            0.760400000000     0.728400000000     0.578000000000     1.007825032070
         H            2.809900000000    -0.097900000000     1.003200000000     1.007825032070
         H            2.817400000000     1.026800000000    -0.378600000000     1.007825032070
         H            2.581000000000    -0.963300000000    -1.938400000000     1.007825032070
         H            2.653800000000    -2.036400000000    -0.553400000000     1.007825032070
         H            4.846334000000    -0.714656000000    -0.132542000000     1.007825032070
         H            4.755720000000    -0.415090000000    -1.729527000000     1.007825032070

  Charge       = 0
  Multiplicity = 1
  Basis Set: CC-PVDZ
    Blend: CC-PVDZ
  Basis Set: (CC-PVDZ AUX)
    Blend: CC-PVDZ-JKFIT

    Orbital Energies [Eh]
    ---------------------

    Doubly Occupied:

       1A    -19.128999     2A    -14.307234     3A    -10.225879
       4A    -10.202373     5A     -1.011664     6A     -0.879657
       7A     -0.711066     8A     -0.605406     9A     -0.508098
      10A     -0.493764    11A     -0.445801    12A     -0.417939
      13A     -0.399087    14A     -0.354086    15A     -0.330515
      16A     -0.263896    17A     -0.235211

  @DF-RKS Final Energy:  -210.39146086164428

   => Energetics <=

    Nuclear Repulsion Energy =            130.8665601278210033
    One-Electron Energy =                -544.5923158668266524
    Two-Electron Energy =                 226.8258781559541433
    DFT Exchange-Correlation Energy =     -23.4864959285927775
    Empirical Dispersion Energy =          -0.0050873500000000
    VV10 Nonlocal Energy =                  0.0000000000000000
    Total Energy =                       -210.3914608616442763

  Dipole Moment: [D]
     X:     0.4850      Y:     2.1443      Z:     1.0366     Total:     2.4306

  Mulliken Charges: (a.u.)
   Center  Symbol    Alpha    Beta     Spin     Total
       1     O     4.13833  4.13833  0.00000 -0.27665
       2     C     2.94297  2.94297  0.00000  0.11406
       3     C     2.97825  2.97825  0.00000  0.04350
       4     N     3.59042  3.59042  0.00000 -0.18084
       5     H     0.43088  0.43088  0.00000  0.13824
       6     H     0.50172  0.50172  0.00000 -0.00343
       7     H     0.50683  0.50683  0.00000 -0.01366
       8     H     0.49007  0.49007  0.00000  0.01987
       9     H     0.48975  0.48975  0.00000  0.02050
      10     H     0.46705  0.46705  0.00000  0.06591
      11     H     0.46375  0.46375  0.00000  0.07251

   Total alpha = 17.00000, Total beta = 17.00000, Total charge =  0.00000

*** Psi4 exiting successfully. Buy a developer a beer!
