                               Psi4 1.2.1 release

  ==> Input File <==

--------------------------------------------------------------------------
set_num_threads(1)
set_memory('5348 MB')

set { scf_mem_safety_factor 0.7 }

set { reference rks }
set { basis cc-pVDZ }

molecule MOL {
    0 1
    noreorient
    nocom
    symmetry c1
    O    1.141000   0.017000   0.083000
    C    2.558000   0.086000  -0.005000
    C    3.192000  -0.789000   1.067000
    O    2.981915  -0.216450   2.352076
    H    0.789000   0.590000  -0.620000
    H    2.874000   1.128000   0.115000
    H    2.871000  -0.243000  -1.001000
    H    4.267457  -0.890541   0.890883
    H    2.755248  -1.793863   1.047631
    H    3.404910  -0.812349   2.994622
}

set optking { frozen_dihedral = (" 1 2 3 4 ") }

energy, wfn = energy('B3LYP-D3', return_wfn=True)

import os
os.chdir(os.environ['HTMD_PSI4_WORKDIR'])

oeprop(wfn, 'DIPOLE', 'QUADRUPOLE', 'MULLIKEN_CHARGES')

with open('psi4out.xyz', 'w') as f:
    f.write('10 ' )
    f.write('%.12f\n' % energy)
    f.write(MOL.save_string_xyz())
--------------------------------------------------------------------------

    Molecular point group: c1

    Geometry (in Angstrom), charge = 0, multiplicity = 1:

       Center              X                  Y                   Z               Mass
    ------------   -----------------  -----------------  -----------------  -----------------
         O            1.141000000000     0.017000000000     0.083000000000    15.994914619560
         C            2.558000000000     0.086000000000    -0.005000000000    12.000000000000
         C            3.192000000000    -0.789000000000     1.067000000000    12.000000000000
         O            2.981915000000    -0.216450000000     2.352076000000    15.994914619560
         H            0.789000000000     0.590000000000    -0.620000000000     1.007825032070
         H            2.874000000000     1.128000000000     0.115000000000     1.007825032070
         H            2.871000000000    -0.243000000000    -1.001000000000     1.007825032070
         H            4.267457000000    -0.890541000000     0.890883000000     1.007825032070
         H            2.755248000000    -1.793863000000     1.047631000000     1.007825032070
         H            3.404910000000    -0.812349000000     2.994622000000     1.007825032070

  Charge       = 0
  Multiplicity = 1
  Basis Set: CC-PVDZ
    Blend: CC-PVDZ
  Basis Set: (CC-PVDZ AUX)
    Blend: CC-PVDZ-JKFIT

    Orbital Energies [Eh]
    ---------------------

    Doubly Occupied:

       1A    -19.125252     2A    -19.125216     3A    -10.227263
       4A    -10.227075     5A     -1.016467     6A     -1.000019
       7A     -0.733708     8A     -0.602468     9A     -0.518107
      10A     -0.505286    11A     -0.433592    12A     -0.418112
      13A     -0.405742    14A     -0.341967    15A     -0.318007
      16A     -0.264068    17A     -0.255887

  @DF-RKS Final Energy:  -230.25643102631761

   => Energetics <=

    Nuclear Repulsion Energy =            131.4802711201855629
    One-Electron Energy =                -574.8058573021060056
    Two-Electron Energy =                 237.6101072290437912
    DFT Exchange-Correlation Energy =     -24.5365897234409225
    Empirical Dispersion Energy =          -0.0043623500000000
    VV10 Nonlocal Energy =                  0.0000000000000000
    Total Energy =                       -230.2564310263176139

  Dipole Moment: [D]
     X:     1.4044      Y:    -0.4357      Z:    -1.1885     Total:     1.8907

  Mulliken Charges: (a.u.)
   Center  Symbol    Alpha    Beta     Spin     Total
       1     O     4.13586  4.13586  0.00000 -0.27172
       2     C     2.93184  2.93184  0.00000  0.13631
       3     C     2.93197  2.93197  0.00000  0.13605
       4     O     4.13611  4.13611  0.00000 -0.27222
       5     H     0.43080  0.43080  0.00000  0.13840
       6     H     0.49744  0.49744  0.00000  0.00513
       7     H     0.50401  0.50401  0.00000 -0.00801
       8     H     0.50388  0.50388  0.00000 -0.00777
       9     H     0.49734  0.49734  0.00000  0.00532
      10     H     0.43074  0.43074  0.00000  0.13851

   Total alpha = 17.00000, Total beta = 17.00000, Total charge = -0.00000

*** Psi4 exiting successfully. Buy a developer a beer!
