                               Psi4 1.2.1 release

  ==> Input File <==

--------------------------------------------------------------------------
set_num_threads(4)
set_memory('3000 MB')

set { scf_mem_safety_factor 0.7 }

set { reference rks }
set { basis 6-31G* }

molecule MOL {
    1 1
    noreorient
    nocom
    symmetry c1
    C   -0.000000  -0.000000  -0.177864
    C    0.036678   1.219374   0.524165
    C    0.031765   1.213120   1.915444
    C    0.000000   0.000000   2.610107
    C   -0.031765  -1.213120   1.915444
    C   -0.036678  -1.219375   0.524165
    C   -0.000000   0.000000  -1.644734
    H    0.018170   2.164705  -0.010854
    H    0.042402   2.152895   2.457886
    H    0.000000   0.000000   3.695756
    H   -0.042402  -2.152895   2.457886
    H   -0.018170  -2.164705  -0.010853
    N   -0.712590  -0.905950  -2.308461
    N    0.712590   0.905950  -2.308460
    H    0.673432   1.006470  -3.315997
    H    1.377190   1.485970  -1.813316
    H   -0.293282  -1.791499  -2.559991
    H   -1.694682  -0.782482  -2.525294
}

set optking { frozen_dihedral = (" 1 7 13 17 ") }

set optking { dynamic_level = 1
 geom_maxiter = 250
 print_trajectory_xyz_file = True }

energy, wfn = optimize('B3LYP-D3', return_wfn=True)

import os
os.chdir(os.environ['HTMD_PSI4_WORKDIR'])

oeprop(wfn, 'DIPOLE', 'QUADRUPOLE', 'MULLIKEN_CHARGES')

with open('psi4out.xyz', 'w') as f:
    f.write('18 ' )
    f.write('%.12f\n' % energy)
    f.write(MOL.save_string_xyz())
--------------------------------------------------------------------------

    Molecular point group: c1
  Charge       = 1
  Multiplicity = 1
  Basis Set: 6-31G*
    Blend: 6-31G*
  Basis Set: (6-31G* AUX)
    Blend: CC-PVDZ-JKFIT
  @DF-RKS Final Energy:  -381.42631382952703
    Total Energy =                       -381.4263138295270323
    Molecular point group: c1
  Basis Set: 6-31G*
    Blend: 6-31G*
  Basis Set: (6-31G* AUX)
    Blend: CC-PVDZ-JKFIT
  Basis Set: 6-31G*
    Blend: 6-31G*
  Basis Set: (6-31G* AUX)
    Blend: CC-PVDZ-JKFIT
  @DF-RKS Final Energy:  -381.43457917885655
    Total Energy =                       -381.4345791788565521
  Basis Set: 6-31G*
    Blend: 6-31G*
  Basis Set: (6-31G* AUX)
    Blend: CC-PVDZ-JKFIT
  Basis Set: 6-31G*
    Blend: 6-31G*
  @DF-RKS Final Energy:  -381.43968969416159
    Total Energy =                       -381.4396896941615864
  @DF-RKS Final Energy:  -380.34106688978960
    Total Energy =                       -380.3410668897896016
  @DF-RKS Final Energy:  -380.70440544914703
    Total Energy =                       -380.7044054491470320
  @DF-RKS Final Energy:  -381.07750227172318
    Total Energy =                       -381.0775022717231195
  @DF-RKS Final Energy:  -381.34230143531840
    Total Energy =                       -381.3423014353184612
  @DF-RKS Final Energy:  -381.07750227172380
    Total Energy =                       -381.0775022717237448
  @DF-RKS Final Energy:  -381.14662414649393
    Total Energy =                       -381.1466241464938776
  @DF-RKS Final Energy:  -381.21081201313575
    Total Energy =                       -381.2108120131358078
  @DF-RKS Final Energy:  -381.26929154784136
    Total Energy =                       -381.2692915478414193
  @DF-RKS Final Energy:  -381.32116580624194
    Total Energy =                       -381.3211658062419929
  @DF-RKS Final Energy:  -381.36546005637587
    Total Energy =                       -381.3654600563758663
  @DF-RKS Final Energy:  -381.40111019346989
    Total Energy =                       -381.4011101934699468
  @DF-RKS Final Energy:  -381.42703236252186
    Total Energy =                       -381.4270323625218566
  @DF-RKS Final Energy:  -381.44229727527681
    Total Energy =                       -381.4422972752768715
  @DF-RKS Final Energy:  -381.44737675660031
    Total Energy =                       -381.4473767566003062
  @DF-RKS Final Energy:  -381.44838888684455
    Total Energy =                       -381.4483888868446115
  @DF-RKS Final Energy:  -381.44862397140048
    Total Energy =                       -381.4486239714004796
  @DF-RKS Final Energy:  -381.44860631922739
    Total Energy =                       -381.4486063192273377
  @DF-RKS Final Energy:  -381.44875185610550
    Total Energy =                       -381.4487518561054458
  @DF-RKS Final Energy:  -381.44863100176235
    Total Energy =                       -381.4486310017624078
  @DF-RKS Final Energy:  -381.44877307616480
    Total Energy =                       -381.4487730761647981
  @DF-RKS Final Energy:  -381.44854180527454
    Total Energy =                       -381.4485418052745445
  @DF-RKS Final Energy:  -381.44878206198780
    Total Energy =                       -381.4487820619878562
  @DF-RKS Final Energy:  -381.44872682243272
    Total Energy =                       -381.4487268224327181
  @DF-RKS Final Energy:  -381.44880235356413
    Total Energy =                       -381.4488023535641901
  @DF-RKS Final Energy:  -381.44871752366134
    Total Energy =                       -381.4487175236612870
  @DF-RKS Final Energy:  -381.44880420905298
    Total Energy =                       -381.4488042090530371
  @DF-RKS Final Energy:  -381.44881458576748
    Total Energy =                       -381.4488145857674795
  Basis Set: (6-31G* AUX)
    Blend: CC-PVDZ-JKFIT
  Basis Set: 6-31G*
    Blend: 6-31G*
  Basis Set: (6-31G* AUX)
    Blend: CC-PVDZ-JKFIT
  @DF-RKS Final Energy:  -381.44882668046938
    Total Energy =                       -381.4488266804694376
  Basis Set: 6-31G*
    Blend: 6-31G*
  Basis Set: (6-31G* AUX)
    Blend: CC-PVDZ-JKFIT
  Charge       = 1
  Multiplicity = 1
  Basis Set: 6-31G*
    Blend: 6-31G*
  Basis Set: (6-31G* AUX)
    Blend: CC-PVDZ-JKFIT

    Orbital Energies [Eh]
    ---------------------

    Doubly Occupied:

       1A    -14.580594     2A    -14.535770     3A    -10.497630
       4A    -10.381139     5A    -10.368173     6A    -10.367832
       7A    -10.357043     8A    -10.350838     9A    -10.350444
      10A     -1.179164    11A     -1.079679    12A     -1.023464
      13A     -0.933159    14A     -0.912869    15A     -0.843570
      16A     -0.785976    17A     -0.774226    18A     -0.740798
      19A     -0.715471    20A     -0.682106    21A     -0.672073
      22A     -0.637942    23A     -0.613968    24A     -0.592735
      25A     -0.587334    26A     -0.562987    27A     -0.524824
      28A     -0.517130    29A     -0.507539    30A     -0.465876
      31A     -0.423690    32A     -0.416318

  @DF-RKS Final Energy:  -381.44882753538690

   => Energetics <=

    Nuclear Repulsion Energy =            416.0645421057321300
    One-Electron Energy =               -1327.1238155342016398
    Two-Electron Energy =                 574.0133078120966275
    DFT Exchange-Correlation Energy =     -44.3907665490140459
    Empirical Dispersion Energy =          -0.0120953700000000
    VV10 Nonlocal Energy =                  0.0000000000000000
    Total Energy =                       -381.4488275353869540
    Molecular point group: c1
  Basis Set: 6-31G*
    Blend: 6-31G*
  Basis Set: (6-31G* AUX)
    Blend: CC-PVDZ-JKFIT

  -Total Gradient:
     Atom            X                  Y                   Z
    ------   -----------------  -----------------  -----------------
       1        0.004563709756    -0.007729205684    -0.003554563068
       2       -0.000031698707    -0.000085508428    -0.000227681349
       3        0.000015549394     0.000212975827     0.000266762826
       4       -0.000296297816    -0.000009648656     0.000090849687
       5        0.000143299538     0.000136060343    -0.000140252628
       6       -0.000052804741     0.000041388534     0.000042651451
       7       -0.005949294955     0.011062683794     0.009199275123
       8       -0.000047600317    -0.000008678463    -0.000001700851
       9        0.000013176540    -0.000163020484    -0.000075760572
      10        0.000186545037    -0.000085533408    -0.000028847953
      11       -0.000012444732    -0.000025742840     0.000081407894
      12        0.000015225711    -0.000040085940    -0.000042638729
      13       -0.002193398328    -0.000229247362    -0.017548771314
      14        0.000062259926     0.000253968523     0.000017356177
      15       -0.000064839232     0.000024101609    -0.000058981141
      16       -0.000033277869    -0.000005131210     0.000039810555
      17        0.003730253806    -0.003365935264     0.011745294637
      18       -0.000067603006     0.000016229994     0.000174877663

  **** Optimization is complete! (in 20 steps) ****
    Final optimized geometry and variables:
    Molecular point group: c1

    Geometry (in Angstrom), charge = 1, multiplicity = 1:

    C           -0.142968730028     0.055756383144    -0.132139161984
    C            0.750684103743     1.151244816875    -0.144346656676
    C            1.760179433015     1.233188053209     0.804569709532
    C            1.887776496748     0.231992404544     1.776034432427
    C            0.999080337657    -0.847924165252     1.806482937706
    C           -0.020035240805    -0.934845419795     0.866218838149
    C           -1.176334363368    -0.076556410766    -1.143362310589
    H            0.622696816365     1.959116714093    -0.859807970444
    H            2.440136290521     2.078511464555     0.800362818966
    H            2.680899712990     0.297528787507     2.514917352444
    H            1.105045106738    -1.620805274253     2.560759666391
    H           -0.689542676255    -1.789096582723     0.878453707227
    N           -2.334745991190    -0.819911681493    -0.981645634030
    N           -1.012958450799     0.418452151245    -2.356145385838
    H           -1.779946584568     0.376062222314    -3.020858241971
    H           -0.137294030085     0.828984167727    -2.659484788884
    H           -2.253235703686    -1.792898008917    -1.276342189222
    H           -2.636778527003    -0.830341621995    -0.008638123221

  Dipole Moment: [D]
     X:    -1.7071      Y:    -0.6117      Z:    -3.2662     Total:     3.7358

  Mulliken Charges: (a.u.)
   Center  Symbol    Alpha    Beta     Spin     Total
       1     C     2.93401  2.93401  0.00000  0.13197
       2     C     3.08338  3.08338  0.00000 -0.16676
       3     C     3.06149  3.06149  0.00000 -0.12299
       4     C     3.04923  3.04923  0.00000 -0.09847
       5     C     3.06168  3.06168  0.00000 -0.12336
       6     C     3.07911  3.07911  0.00000 -0.15823
       7     C     2.77891  2.77891  0.00000  0.44219
       8     H     0.41301  0.41301  0.00000  0.17397
       9     H     0.40255  0.40255  0.00000  0.19491
      10     H     0.40026  0.40026  0.00000  0.19949
      11     H     0.40268  0.40268  0.00000  0.19464
      12     H     0.41891  0.41891  0.00000  0.16217
      13     N     3.86689  3.86689  0.00000 -0.73377
      14     N     3.83197  3.83197  0.00000 -0.66395
      15     H     0.29575  0.29575  0.00000  0.40849
      16     H     0.30074  0.30074  0.00000  0.39852
      17     H     0.30535  0.30535  0.00000  0.38930
      18     H     0.31407  0.31407  0.00000  0.37186

   Total alpha = 32.00000, Total beta = 32.00000, Total charge =  1.00000

*** Psi4 exiting successfully. Buy a developer a beer!
