                               Psi4 1.2.1 release

  ==> Input File <==

--------------------------------------------------------------------------
set_num_threads(1)
set_memory('5348 MB')

set { scf_mem_safety_factor 0.7 }

set { reference rks }
set { basis cc-pVDZ }

molecule MOL {
    0 1
    noreorient
    nocom
    symmetry c1
    O    1.050400   0.042900  -0.048100
    C    2.474100   0.047400  -0.029000
    C    3.002600  -1.068900  -0.932000
    N    4.462700  -1.072400  -1.006800
    H    0.760400   0.728400   0.578000
    H    2.809900  -0.097900   1.003200
    H    2.817400   1.026800  -0.378600
    H    2.581000  -0.963300  -1.938400
    H    2.653800  -2.036400  -0.553400
    H    4.837983  -0.430945  -0.308817
    H    4.745711  -0.696513  -1.911711
}

set optking { frozen_dihedral = (" 2 3 4 10 ") }

energy, wfn = energy('B3LYP-D3', return_wfn=True)

import os
os.chdir(os.environ['HTMD_PSI4_WORKDIR'])

oeprop(wfn, 'DIPOLE', 'QUADRUPOLE', 'MULLIKEN_CHARGES')

with open('psi4out.xyz', 'w') as f:
    f.write('11 ' )
    f.write('%.12f\n' % energy)
    f.write(MOL.save_string_xyz())
--------------------------------------------------------------------------

    Molecular point group: c1

    Geometry (in Angstrom), charge = 0, multiplicity = 1:

       Center              X                  Y                   Z               Mass
    ------------   -----------------  -----------------  -----------------  -----------------
         O            1.050400000000     0.042900000000    -0.048100000000    15.994914619560
         C            2.474100000000     0.047400000000    -0.029000000000    12.000000000000
         C            3.002600000000    -1.068900000000    -0.932000000000    12.000000000000
         N            4.462700000000    -1.072400000000    -1.006800000000    14.003074004780
         H            0.760400000000     0.728400000000     0.578000000000     1.007825032070
         H            2.809900000000    -0.097900000000     1.003200000000     1.007825032070
         H            2.817400000000     1.026800000000    -0.378600000000     1.007825032070
         H            2.581000000000    -0.963300000000    -1.938400000000     1.007825032070
         H            2.653800000000    -2.036400000000    -0.553400000000     1.007825032070
         H            4.837983000000    -0.430945000000    -0.308817000000     1.007825032070
         H            4.745711000000    -0.696513000000    -1.911711000000     1.007825032070

  Charge       = 0
  Multiplicity = 1
  Basis Set: CC-PVDZ
    Blend: CC-PVDZ
  Basis Set: (CC-PVDZ AUX)
    Blend: CC-PVDZ-JKFIT

    Orbital Energies [Eh]
    ---------------------

    Doubly Occupied:

       1A    -19.129883     2A    -14.305490     3A    -10.227878
       4A    -10.201614     5A     -1.012462     6A     -0.878801
       7A     -0.711729     8A     -0.605194     9A     -0.509519
      10A     -0.487459    11A     -0.454936    12A     -0.415636
      13A     -0.393228    14A     -0.359815    15A     -0.328507
      16A     -0.264447    17A     -0.232704

  @DF-RKS Final Energy:  -210.38878174266495

   => Energetics <=

    Nuclear Repulsion Energy =            130.8246901281783323
    One-Electron Energy =                -544.5054851903485087
    Two-Electron Energy =                 226.7845032395329099
    DFT Exchange-Correlation Energy =     -23.4875077900276388
    Empirical Dispersion Energy =          -0.0049821300000000
    VV10 Nonlocal Energy =                  0.0000000000000000
    Total Energy =                       -210.3887817426649463

  Dipole Moment: [D]
     X:     0.4508      Y:     2.1948      Z:     0.6096     Total:     2.3220

  Mulliken Charges: (a.u.)
   Center  Symbol    Alpha    Beta     Spin     Total
       1     O     4.13772  4.13772  0.00000 -0.27544
       2     C     2.94352  2.94352  0.00000  0.11296
       3     C     2.97880  2.97880  0.00000  0.04239
       4     N     3.59061  3.59061  0.00000 -0.18122
       5     H     0.43064  0.43064  0.00000  0.13871
       6     H     0.49887  0.49887  0.00000  0.00226
       7     H     0.50567  0.50567  0.00000 -0.01134
       8     H     0.49285  0.49285  0.00000  0.01431
       9     H     0.49045  0.49045  0.00000  0.01911
      10     H     0.46829  0.46829  0.00000  0.06343
      11     H     0.46258  0.46258  0.00000  0.07483

   Total alpha = 17.00000, Total beta = 17.00000, Total charge = -0.00000

*** Psi4 exiting successfully. Buy a developer a beer!
