                               Psi4 1.2.1 release

  ==> Input File <==

--------------------------------------------------------------------------
set_num_threads(4)
set_memory('3000 MB')

set { scf_mem_safety_factor 0.7 }

set { reference rks }
set { basis 6-31G* }

molecule MOL {
    1 1
    noreorient
    nocom
    symmetry c1
    C   -0.000000  -0.000000  -0.177864
    C    0.036678   1.219374   0.524165
    C    0.031765   1.213120   1.915444
    C    0.000000   0.000000   2.610107
    C   -0.031765  -1.213120   1.915444
    C   -0.036678  -1.219375   0.524165
    C   -0.000000   0.000000  -1.644734
    H    0.018170   2.164705  -0.010854
    H    0.042402   2.152895   2.457886
    H    0.000000   0.000000   3.695756
    H   -0.042402  -2.152895   2.457886
    H   -0.018170  -2.164705  -0.010853
    N   -0.712590  -0.905950  -2.308461
    N    0.712590   0.905950  -2.308460
    H    0.673432   1.006470  -3.315997
    H    1.377190   1.485970  -1.813316
    H   -1.218470  -0.637218  -3.142219
    H   -0.725961  -1.887476  -2.057076
}

set optking { frozen_dihedral = (" 1 7 13 17 ") }

set optking { dynamic_level = 1
 geom_maxiter = 250
 print_trajectory_xyz_file = True }

energy, wfn = optimize('B3LYP-D3', return_wfn=True)

import os
os.chdir(os.environ['HTMD_PSI4_WORKDIR'])

oeprop(wfn, 'DIPOLE', 'QUADRUPOLE', 'MULLIKEN_CHARGES')

with open('psi4out.xyz', 'w') as f:
    f.write('18 ' )
    f.write('%.12f\n' % energy)
    f.write(MOL.save_string_xyz())
--------------------------------------------------------------------------

    Molecular point group: c1
  Charge       = 1
  Multiplicity = 1
  Basis Set: 6-31G*
    Blend: 6-31G*
  Basis Set: (6-31G* AUX)
    Blend: CC-PVDZ-JKFIT
  @DF-RKS Final Energy:  -381.44723083578037
    Total Energy =                       -381.4472308357803172
    Molecular point group: c1
  Basis Set: 6-31G*
    Blend: 6-31G*
  Basis Set: (6-31G* AUX)
    Blend: CC-PVDZ-JKFIT
  Basis Set: 6-31G*
    Blend: 6-31G*
  Basis Set: (6-31G* AUX)
    Blend: CC-PVDZ-JKFIT
  @DF-RKS Final Energy:  -381.45510732242013
    Total Energy =                       -381.4551073224200763
  Basis Set: 6-31G*
    Blend: 6-31G*
  Basis Set: (6-31G* AUX)
    Blend: CC-PVDZ-JKFIT
  Basis Set: 6-31G*
    Blend: 6-31G*
  @DF-RKS Final Energy:  -381.45798154407703
    Total Energy =                       -381.4579815440770290
  @DF-RKS Final Energy:  -381.46167150945979
    Total Energy =                       -381.4616715094597339
  @DF-RKS Final Energy:  -381.46241332855629
    Total Energy =                       -381.4624133285562380
  @DF-RKS Final Energy:  -381.46251173427601
    Total Energy =                       -381.4625117342760632
  Basis Set: (6-31G* AUX)
    Blend: CC-PVDZ-JKFIT
  Basis Set: 6-31G*
    Blend: 6-31G*
  Basis Set: (6-31G* AUX)
    Blend: CC-PVDZ-JKFIT
  @DF-RKS Final Energy:  -381.46254150935727
    Total Energy =                       -381.4625415093573224
  Basis Set: 6-31G*
    Blend: 6-31G*
  Basis Set: (6-31G* AUX)
    Blend: CC-PVDZ-JKFIT
  Charge       = 1
  Multiplicity = 1
  Basis Set: 6-31G*
    Blend: 6-31G*
  Basis Set: (6-31G* AUX)
    Blend: CC-PVDZ-JKFIT

    Orbital Energies [Eh]
    ---------------------

    Doubly Occupied:

       1A    -14.573747     2A    -14.561707     3A    -10.501020
       4A    -10.377487     5A    -10.359910     6A    -10.358676
       7A    -10.344995     8A    -10.343023     9A    -10.342777
      10A     -1.185632    11A     -1.093305    12A     -1.017049
      13A     -0.928656    14A     -0.905028    15A     -0.845671
      16A     -0.785932    17A     -0.775510    18A     -0.739419
      19A     -0.732667    20A     -0.679563    21A     -0.670404
      22A     -0.632035    23A     -0.614612    24A     -0.595429
      25A     -0.579650    26A     -0.576643    27A     -0.518966
      28A     -0.509594    29A     -0.500920    30A     -0.475235
      31A     -0.412616    32A     -0.408201

  @DF-RKS Final Energy:  -381.46254276866199

   => Energetics <=

    Nuclear Repulsion Energy =            416.7155852946787036
    One-Electron Energy =               -1328.5192979774242303
    Two-Electron Energy =                 574.7545430897865799
    DFT Exchange-Correlation Energy =     -44.4015299357030955
    Empirical Dispersion Energy =          -0.0118432400000000
    VV10 Nonlocal Energy =                  0.0000000000000000
    Total Energy =                       -381.4625427686620469
    Molecular point group: c1
  Basis Set: 6-31G*
    Blend: 6-31G*
  Basis Set: (6-31G* AUX)
    Blend: CC-PVDZ-JKFIT

  -Total Gradient:
     Atom            X                  Y                   Z
    ------   -----------------  -----------------  -----------------
       1       -0.006541180887     0.004850295896    -0.000156207968
       2        0.000025729981    -0.000065417646     0.000028063057
       3       -0.000006628452     0.000033727339    -0.000008026953
       4        0.000005329816    -0.000021549823    -0.000001460734
       5        0.000007077204     0.000007324495     0.000014983851
       6       -0.000014165908    -0.000021070386     0.000005852406
       7        0.006739215966    -0.006541792538     0.002566671303
       8       -0.000020947018     0.000010981822     0.000015439741
       9        0.000001091362    -0.000001656536     0.000002286220
      10       -0.000002969873     0.000003001933    -0.000000465610
      11       -0.000007643224    -0.000001939767    -0.000003096721
      12        0.000000947475     0.000001322326     0.000020982560
      13        0.009363018884    -0.000361558852    -0.008719614758
      14       -0.000016904090    -0.000082818746    -0.000031608426
      15       -0.000013855694     0.000016587510     0.000003861870
      16        0.000008902534     0.000003910945    -0.000006731109
      17       -0.009497652117     0.002163221716     0.006250981399
      18       -0.000029921393     0.000004938023    -0.000001184703

  **** Optimization is complete! (in 8 steps) ****
    Final optimized geometry and variables:
    Molecular point group: c1

    Geometry (in Angstrom), charge = 1, multiplicity = 1:

    C            0.058992648272    -0.028305190869    -0.190416643431
    C            0.058796328558     1.194000654982     0.507773763181
    C            0.009126336765     1.192753378252     1.898549004629
    C           -0.018507721358    -0.016271993928     2.599271559419
    C           -0.005455066237    -1.232585937134     1.909424509710
    C            0.027431167693    -1.244329156934     0.519100990605
    C            0.078348210131    -0.031868489140    -1.658136603832
    H            0.034940082034     2.140020966608    -0.025515837599
    H           -0.016286646037     2.135787080887     2.434831348820
    H           -0.051267488605    -0.010909869088     3.684341440085
    H           -0.012127480647    -2.170498692570     2.455069527685
    H            0.080873815640    -2.194594406835    -0.005785622106
    N           -0.594567700291    -0.968170183208    -2.353025592651
    N            0.697524480924     0.937085142117    -2.318069536303
    H            0.708385157052     0.980537920419    -3.330938096223
    H            1.290679507812     1.592401183233    -1.825569469405
    H           -1.091443685091    -0.701642466821    -3.197879965150
    H           -1.149250946615    -1.605664939972    -1.792005777437

  Dipole Moment: [D]
     X:    -0.3709      Y:     0.6737      Z:    -5.3091     Total:     5.3645

  Mulliken Charges: (a.u.)
   Center  Symbol    Alpha    Beta     Spin     Total
       1     C     2.94953  2.94953  0.00000  0.10094
       2     C     3.08353  3.08353  0.00000 -0.16706
       3     C     3.06225  3.06225  0.00000 -0.12450
       4     C     3.05149  3.05149  0.00000 -0.10298
       5     C     3.06218  3.06218  0.00000 -0.12435
       6     C     3.08661  3.08661  0.00000 -0.17322
       7     C     2.73992  2.73992  0.00000  0.52016
       8     H     0.41551  0.41551  0.00000  0.16897
       9     H     0.40494  0.40494  0.00000  0.19011
      10     H     0.40331  0.40331  0.00000  0.19337
      11     H     0.40461  0.40461  0.00000  0.19077
      12     H     0.41133  0.41133  0.00000  0.17734
      13     N     3.85655  3.85655  0.00000 -0.71311
      14     N     3.85604  3.85604  0.00000 -0.71207
      15     H     0.30256  0.30256  0.00000  0.39489
      16     H     0.29863  0.29863  0.00000  0.40274
      17     H     0.30547  0.30547  0.00000  0.38907
      18     H     0.30554  0.30554  0.00000  0.38892

   Total alpha = 32.00000, Total beta = 32.00000, Total charge =  1.00000

*** Psi4 exiting successfully. Buy a developer a beer!
