                               Psi4 1.2.1 release

  ==> Input File <==

--------------------------------------------------------------------------
set_num_threads(4)
set_memory('3000 MB')

set { scf_mem_safety_factor 0.7 }

set { reference rks }
set { basis 6-31G* }

molecule MOL {
    1 1
    noreorient
    nocom
    symmetry c1
    C   -0.000000  -0.000000  -0.177864
    C    0.036678   1.219374   0.524165
    C    0.031765   1.213120   1.915444
    C    0.000000   0.000000   2.610107
    C   -0.031765  -1.213120   1.915444
    C   -0.036678  -1.219375   0.524165
    C   -0.000000   0.000000  -1.644734
    H    0.018170   2.164705  -0.010854
    H    0.042402   2.152895   2.457886
    H    0.000000   0.000000   3.695756
    H   -0.042402  -2.152895   2.457886
    H   -0.018170  -2.164705  -0.010853
    N    0.426605   1.070765  -2.308460
    N   -0.426605  -1.070765  -2.308461
    H   -0.360563  -1.156064  -3.315997
    H   -0.899563  -1.815363  -1.813317
    H    0.899563   1.815363  -1.813316
    H    0.360563   1.156065  -3.315996
}

set optking { frozen_dihedral = (" 2 1 7 13 ") }

set optking { dynamic_level = 1
 geom_maxiter = 250
 print_trajectory_xyz_file = True }

energy, wfn = optimize('B3LYP-D3', return_wfn=True)

import os
os.chdir(os.environ['HTMD_PSI4_WORKDIR'])

oeprop(wfn, 'DIPOLE', 'QUADRUPOLE', 'MULLIKEN_CHARGES')

with open('psi4out.xyz', 'w') as f:
    f.write('18 ' )
    f.write('%.12f\n' % energy)
    f.write(MOL.save_string_xyz())
--------------------------------------------------------------------------

    Molecular point group: c1
  Charge       = 1
  Multiplicity = 1
  Basis Set: 6-31G*
    Blend: 6-31G*
  Basis Set: (6-31G* AUX)
    Blend: CC-PVDZ-JKFIT
  @DF-RKS Final Energy:  -381.46858126287628
    Total Energy =                       -381.4685812628762278
    Molecular point group: c1
  Basis Set: 6-31G*
    Blend: 6-31G*
  Basis Set: (6-31G* AUX)
    Blend: CC-PVDZ-JKFIT
  Basis Set: 6-31G*
    Blend: 6-31G*
  Basis Set: (6-31G* AUX)
    Blend: CC-PVDZ-JKFIT
  @DF-RKS Final Energy:  -381.46902519457723
    Total Energy =                       -381.4690251945772275
  Basis Set: 6-31G*
    Blend: 6-31G*
  Basis Set: (6-31G* AUX)
    Blend: CC-PVDZ-JKFIT
  Basis Set: 6-31G*
    Blend: 6-31G*
  @DF-RKS Final Energy:  -381.46926232301593
    Total Energy =                       -381.4692623230158688
  @DF-RKS Final Energy:  -381.46927664418200
    Total Energy =                       -381.4692766441820595
  Basis Set: (6-31G* AUX)
    Blend: CC-PVDZ-JKFIT
  Basis Set: 6-31G*
    Blend: 6-31G*
  Basis Set: (6-31G* AUX)
    Blend: CC-PVDZ-JKFIT
  @DF-RKS Final Energy:  -381.46928078821850
    Total Energy =                       -381.4692807882185548
  Basis Set: 6-31G*
    Blend: 6-31G*
  Basis Set: (6-31G* AUX)
    Blend: CC-PVDZ-JKFIT
  Charge       = 1
  Multiplicity = 1
  Basis Set: 6-31G*
    Blend: 6-31G*
  Basis Set: (6-31G* AUX)
    Blend: CC-PVDZ-JKFIT

    Orbital Energies [Eh]
    ---------------------

    Doubly Occupied:

       1A    -14.566349     2A    -14.566186     3A    -10.497089
       4A    -10.375216     5A    -10.358654     6A    -10.358283
       7A    -10.345310     8A    -10.341968     9A    -10.341913
      10A     -1.182988    11A     -1.090116    12A     -1.015776
      13A     -0.927879    14A     -0.904131    15A     -0.846428
      16A     -0.785657    17A     -0.775211    18A     -0.737891
      19A     -0.735531    20A     -0.688663    21A     -0.669275
      22A     -0.628756    23A     -0.613732    24A     -0.592666
      25A     -0.580775    26A     -0.574792    27A     -0.518410
      28A     -0.507888    29A     -0.499698    30A     -0.471889
      31A     -0.413023    32A     -0.407235

  @DF-RKS Final Energy:  -381.46928130185415

   => Energetics <=

    Nuclear Repulsion Energy =            416.8513466113000163
    One-Electron Energy =               -1328.8545493661276851
    Two-Electron Energy =                 574.9521890609713637
    DFT Exchange-Correlation Energy =     -44.4065405079978248
    Empirical Dispersion Energy =          -0.0117271000000000
    VV10 Nonlocal Energy =                  0.0000000000000000
    Total Energy =                       -381.4692813018541528
    Molecular point group: c1
  Basis Set: 6-31G*
    Blend: 6-31G*
  Basis Set: (6-31G* AUX)
    Blend: CC-PVDZ-JKFIT

  -Total Gradient:
     Atom            X                  Y                   Z
    ------   -----------------  -----------------  -----------------
       1       -0.006942031704     0.000885597181    -0.000256971332
       2        0.003575406135    -0.000150178980     0.000126725674
       3        0.000008398108     0.000004765022    -0.000000279783
       4        0.000008556974    -0.000001320655     0.000006093211
       5       -0.000001353255     0.000001228692     0.000000034946
       6       -0.000006359753     0.000000475221    -0.000003118936
       7        0.006888755061    -0.002202450151     0.000223277964
       8       -0.000002580517     0.000006848904    -0.000001650761
       9       -0.000000402738     0.000002265832    -0.000006188578
      10       -0.000003016901     0.000002158369    -0.000003735735
      11       -0.000001175821    -0.000001620918    -0.000005818208
      12       -0.000007991602    -0.000002320807    -0.000006052858
      13       -0.003509304143     0.001445613227    -0.000108973246
      14       -0.000014839581    -0.000003373366    -0.000001928879
      15        0.000010409805    -0.000000258472     0.000009909261
      16        0.000004096286     0.000000108734     0.000008295297
      17       -0.000001203198     0.000008116164     0.000000751254
      18       -0.000005120281     0.000004907414     0.000003416407

  **** Optimization is complete! (in 6 steps) ****
    Final optimized geometry and variables:
    Molecular point group: c1

    Geometry (in Angstrom), charge = 1, multiplicity = 1:

    C           -0.034687025244     0.000977641722    -0.177007576900
    C           -0.005545983002     1.218217265877     0.531947057447
    C            0.006755530951     1.213354397665     1.922161831777
    C            0.005230376690     0.001018771540     2.618834006404
    C           -0.004841308630    -1.211427440969     1.923180328737
    C           -0.016209881822    -1.216177340676     0.532685391527
    C            0.004893536809    -0.005095487286    -1.642856477123
    H           -0.060794926817     2.168603503812     0.009079265402
    H            0.007829824748     2.154165102175     2.462779481146
    H            0.016211215602     0.001446114438     3.704408308528
    H            0.013978939255    -2.151986512299     2.463908368830
    H            0.040787561833    -2.166087725378     0.009116356674
    N            0.458133307346     1.054032682622    -2.311808552425
    N           -0.462388064166    -1.050313837292    -2.323193404795
    H           -0.386506033976    -1.122965732099    -3.330554515140
    H           -0.993875224074    -1.770832546293    -1.853866354814
    H            0.991633084532     1.768606806168    -1.835627403510
    H            0.419395069965     1.114464336273    -3.322185111764

  Dipole Moment: [D]
     X:     0.0959      Y:    -0.0426      Z:    -5.5758     Total:     5.5768

  Mulliken Charges: (a.u.)
   Center  Symbol    Alpha    Beta     Spin     Total
       1     C     2.94359  2.94359  0.00000  0.11282
       2     C     3.08606  3.08606  0.00000 -0.17212
       3     C     3.06203  3.06203  0.00000 -0.12405
       4     C     3.05129  3.05129  0.00000 -0.10259
       5     C     3.06161  3.06161  0.00000 -0.12323
       6     C     3.08504  3.08504  0.00000 -0.17007
       7     C     2.71246  2.71246  0.00000  0.57508
       8     H     0.41590  0.41590  0.00000  0.16821
       9     H     0.40511  0.40511  0.00000  0.18978
      10     H     0.40315  0.40315  0.00000  0.19371
      11     H     0.40510  0.40510  0.00000  0.18981
      12     H     0.41645  0.41645  0.00000  0.16710
      13     N     3.87018  3.87018  0.00000 -0.74037
      14     N     3.86873  3.86873  0.00000 -0.73746
      15     H     0.30585  0.30585  0.00000  0.38830
      16     H     0.30040  0.30040  0.00000  0.39921
      17     H     0.30113  0.30113  0.00000  0.39774
      18     H     0.30593  0.30593  0.00000  0.38814

   Total alpha = 32.00000, Total beta = 32.00000, Total charge =  1.00000

*** Psi4 exiting successfully. Buy a developer a beer!
