                               Psi4 1.2.1 release

  ==> Input File <==

--------------------------------------------------------------------------
set_num_threads(4)
set_memory('3000 MB')

set { scf_mem_safety_factor 0.7 }

set { reference rks }
set { basis 6-31G* }

molecule MOL {
    1 1
    noreorient
    nocom
    symmetry c1
    C   -0.000000  -0.000000  -0.177864
    C    0.036678   1.219374   0.524165
    C    0.031765   1.213120   1.915444
    C    0.000000   0.000000   2.610107
    C   -0.031765  -1.213120   1.915444
    C   -0.036678  -1.219375   0.524165
    C   -0.000000   0.000000  -1.644734
    H    0.018170   2.164705  -0.010854
    H    0.042402   2.152895   2.457886
    H    0.000000   0.000000   3.695756
    H   -0.042402  -2.152895   2.457886
    H   -0.018170  -2.164705  -0.010853
    N   -0.165932   1.140612  -2.308460
    N    0.165932  -1.140612  -2.308461
    H    0.265775  -1.181463  -3.315997
    H    0.128637  -2.021932  -1.813317
    H   -0.128637   2.021932  -1.813316
    H   -0.265775   1.181463  -3.315997
}

set optking { frozen_dihedral = (" 2 1 7 13 ") }

set optking { dynamic_level = 1
 geom_maxiter = 250
 print_trajectory_xyz_file = True }

energy, wfn = optimize('B3LYP-D3', return_wfn=True)

import os
os.chdir(os.environ['HTMD_PSI4_WORKDIR'])

oeprop(wfn, 'DIPOLE', 'QUADRUPOLE', 'MULLIKEN_CHARGES')

with open('psi4out.xyz', 'w') as f:
    f.write('18 ' )
    f.write('%.12f\n' % energy)
    f.write(MOL.save_string_xyz())
--------------------------------------------------------------------------

    Molecular point group: c1
  Charge       = 1
  Multiplicity = 1
  Basis Set: 6-31G*
    Blend: 6-31G*
  Basis Set: (6-31G* AUX)
    Blend: CC-PVDZ-JKFIT
  @DF-RKS Final Energy:  -381.46304776550915
    Total Energy =                       -381.4630477655091454
    Molecular point group: c1
  Basis Set: 6-31G*
    Blend: 6-31G*
  Basis Set: (6-31G* AUX)
    Blend: CC-PVDZ-JKFIT
  Basis Set: 6-31G*
    Blend: 6-31G*
  Basis Set: (6-31G* AUX)
    Blend: CC-PVDZ-JKFIT
  @DF-RKS Final Energy:  -381.46517468143327
    Total Energy =                       -381.4651746814332682
  Basis Set: 6-31G*
    Blend: 6-31G*
  Basis Set: (6-31G* AUX)
    Blend: CC-PVDZ-JKFIT
  Basis Set: 6-31G*
    Blend: 6-31G*
  @DF-RKS Final Energy:  -381.46623506449697
    Total Energy =                       -381.4662350644969706
  @DF-RKS Final Energy:  -381.46677393944123
    Total Energy =                       -381.4667739394412820
  @DF-RKS Final Energy:  -381.46741204853083
    Total Energy =                       -381.4674120485308322
  @DF-RKS Final Energy:  -381.46753011979280
    Total Energy =                       -381.4675301197928547
  @DF-RKS Final Energy:  -381.46754563288823
    Total Energy =                       -381.4675456328882319
  @DF-RKS Final Energy:  -381.46754894800125
    Total Energy =                       -381.4675489480013084
  Basis Set: (6-31G* AUX)
    Blend: CC-PVDZ-JKFIT
  Basis Set: 6-31G*
    Blend: 6-31G*
  Basis Set: (6-31G* AUX)
    Blend: CC-PVDZ-JKFIT
  @DF-RKS Final Energy:  -381.46755005137396
    Total Energy =                       -381.4675500513739621
  Basis Set: 6-31G*
    Blend: 6-31G*
  Basis Set: (6-31G* AUX)
    Blend: CC-PVDZ-JKFIT
  Charge       = 1
  Multiplicity = 1
  Basis Set: 6-31G*
    Blend: 6-31G*
  Basis Set: (6-31G* AUX)
    Blend: CC-PVDZ-JKFIT

    Orbital Energies [Eh]
    ---------------------

    Doubly Occupied:

       1A    -14.565656     2A    -14.565372     3A    -10.497665
       4A    -10.376715     5A    -10.360166     6A    -10.359813
       7A    -10.346277     8A    -10.342648     9A    -10.342605
      10A     -1.182974    11A     -1.089386    12A     -1.016661
      13A     -0.928535    14A     -0.905241    15A     -0.847456
      16A     -0.786114    17A     -0.776096    18A     -0.737532
      19A     -0.736338    20A     -0.688104    21A     -0.669372
      22A     -0.630635    23A     -0.611386    24A     -0.597420
      25A     -0.581737    26A     -0.576295    27A     -0.518401
      28A     -0.509135    29A     -0.500635    30A     -0.471425
      31A     -0.413487    32A     -0.407836

  @DF-RKS Final Energy:  -381.46755011181318

   => Energetics <=

    Nuclear Repulsion Energy =            416.7193246164467837
    One-Electron Energy =               -1328.5473548180959824
    Two-Electron Energy =                 574.7792231048433678
    DFT Exchange-Correlation Energy =     -44.4071541750073422
    Empirical Dispersion Energy =          -0.0115888400000000
    VV10 Nonlocal Energy =                  0.0000000000000000
    Total Energy =                       -381.4675501118131820
    Molecular point group: c1
  Basis Set: 6-31G*
    Blend: 6-31G*
  Basis Set: (6-31G* AUX)
    Blend: CC-PVDZ-JKFIT

  -Total Gradient:
     Atom            X                  Y                   Z
    ------   -----------------  -----------------  -----------------
       1        0.009644795833     0.000286405139    -0.000344503891
       2       -0.004862038274     0.000064506153     0.000166278565
       3        0.000001429223     0.000007533114    -0.000005133911
       4        0.000005953013    -0.000001836364     0.000005556525
       5       -0.000003815312    -0.000010202614    -0.000003332354
       6       -0.000040757558     0.000003132771     0.000002312745
       7       -0.009850182714    -0.001179187065     0.000360850083
       8        0.000001500018    -0.000000068523    -0.000010167717
       9       -0.000003153715    -0.000001777558     0.000002073582
      10       -0.000002283978    -0.000000078615     0.000001101334
      11        0.000003750148     0.000002110685     0.000003648752
      12        0.000008637590     0.000000825092     0.000002590974
      13        0.005080322997     0.000842477639    -0.000178233988
      14        0.000038704848    -0.000025170508    -0.000002867011
      15       -0.000004133066     0.000000450370     0.000006543149
      16       -0.000018076763     0.000025586584    -0.000014747215
      17        0.000001631769    -0.000009640767    -0.000001014789
      18       -0.000003180436    -0.000004214364     0.000003772227

  **** Optimization is complete! (in 10 steps) ****
    Final optimized geometry and variables:
    Molecular point group: c1

    Geometry (in Angstrom), charge = 1, multiplicity = 1:

    C            0.046224370195    -0.001533741845    -0.176433281672
    C            0.088620535945     1.212857716040     0.537877008816
    C            0.069259474694     1.209883218846     1.927591045652
    C           -0.008601461447     0.000864297431     2.624966309600
    C           -0.075127602682    -1.208454414693     1.927598581901
    C           -0.062032794259    -1.212229128582     0.537574483160
    C           -0.006447002837    -0.003462036582    -1.643608752971
    H            0.205342628111     2.162881408721     0.025100917942
    H            0.122498584582     2.149800296086     2.467036272097
    H           -0.023749310374     0.001765366683     3.710465654880
    H           -0.155926785359    -2.146766215745     2.466426060461
    H           -0.181602474990    -2.161040903432     0.023236814162
    N           -0.214098683787     1.125607198857    -2.321195837335
    N            0.226579862231    -1.122029977494    -2.328979931348
    H            0.148179081849    -1.165597069659    -3.337560593921
    H            0.585073467956    -1.946807137399    -1.868944422276
    H           -0.579136091627     1.945436986107    -1.857202987815
    H           -0.185055798202     1.158823136661    -3.332947341334

  Dipole Moment: [D]
     X:    -0.1317      Y:    -0.0367      Z:    -5.5118     Total:     5.5135

  Mulliken Charges: (a.u.)
   Center  Symbol    Alpha    Beta     Spin     Total
       1     C     2.93472  2.93472  0.00000  0.13056
       2     C     3.08767  3.08767  0.00000 -0.17534
       3     C     3.06134  3.06134  0.00000 -0.12269
       4     C     3.05136  3.05136  0.00000 -0.10273
       5     C     3.06121  3.06121  0.00000 -0.12241
       6     C     3.08621  3.08621  0.00000 -0.17242
       7     C     2.70846  2.70846  0.00000  0.58308
       8     H     0.41813  0.41813  0.00000  0.16373
       9     H     0.40499  0.40499  0.00000  0.19002
      10     H     0.40280  0.40280  0.00000  0.19441
      11     H     0.40496  0.40496  0.00000  0.19007
      12     H     0.41885  0.41885  0.00000  0.16229
      13     N     3.87327  3.87327  0.00000 -0.74654
      14     N     3.87227  3.87227  0.00000 -0.74453
      15     H     0.30590  0.30590  0.00000  0.38820
      16     H     0.30034  0.30034  0.00000  0.39931
      17     H     0.30139  0.30139  0.00000  0.39722
      18     H     0.30612  0.30612  0.00000  0.38776

   Total alpha = 32.00000, Total beta = 32.00000, Total charge =  1.00000

*** Psi4 exiting successfully. Buy a developer a beer!
