                               Psi4 1.2.1 release

  ==> Input File <==

--------------------------------------------------------------------------
set_num_threads(4)
set_memory('3000 MB')

set { scf_mem_safety_factor 0.7 }

set { reference rks }
set { basis 6-31G* }

molecule MOL {
    1 1
    noreorient
    nocom
    symmetry c1
    C   -0.000000  -0.000000  -0.177864
    C    0.036678   1.219374   0.524165
    C    0.031765   1.213120   1.915444
    C    0.000000   0.000000   2.610107
    C   -0.031765  -1.213120   1.915444
    C   -0.036678  -1.219375   0.524165
    C   -0.000000   0.000000  -1.644734
    H    0.018170   2.164705  -0.010854
    H    0.042402   2.152895   2.457886
    H    0.000000   0.000000   3.695756
    H   -0.042402  -2.152895   2.457886
    H   -0.018170  -2.164705  -0.010853
    N   -1.015073  -0.546037  -2.308461
    N    1.015073   0.546037  -2.308460
    H    1.019311   0.653831  -3.315997
    H    1.855998   0.812421  -1.813316
    H   -1.855998  -0.812421  -1.813317
    H   -1.019312  -0.653831  -3.315997
}

set optking { frozen_dihedral = (" 2 1 7 13 ") }

set optking { dynamic_level = 1
 geom_maxiter = 250
 print_trajectory_xyz_file = True }

energy, wfn = optimize('B3LYP-D3', return_wfn=True)

import os
os.chdir(os.environ['HTMD_PSI4_WORKDIR'])

oeprop(wfn, 'DIPOLE', 'QUADRUPOLE', 'MULLIKEN_CHARGES')

with open('psi4out.xyz', 'w') as f:
    f.write('18 ' )
    f.write('%.12f\n' % energy)
    f.write(MOL.save_string_xyz())
--------------------------------------------------------------------------

    Molecular point group: c1
  Charge       = 1
  Multiplicity = 1
  Basis Set: 6-31G*
    Blend: 6-31G*
  Basis Set: (6-31G* AUX)
    Blend: CC-PVDZ-JKFIT
  @DF-RKS Final Energy:  -381.46715411745623
    Total Energy =                       -381.4671541174562321
    Molecular point group: c1
  Basis Set: 6-31G*
    Blend: 6-31G*
  Basis Set: (6-31G* AUX)
    Blend: CC-PVDZ-JKFIT
  Basis Set: 6-31G*
    Blend: 6-31G*
  Basis Set: (6-31G* AUX)
    Blend: CC-PVDZ-JKFIT
  @DF-RKS Final Energy:  -381.46797603884283
    Total Energy =                       -381.4679760388428349
  Basis Set: 6-31G*
    Blend: 6-31G*
  Basis Set: (6-31G* AUX)
    Blend: CC-PVDZ-JKFIT
  Basis Set: 6-31G*
    Blend: 6-31G*
  @DF-RKS Final Energy:  -381.46815138956720
    Total Energy =                       -381.4681513895671969
  @DF-RKS Final Energy:  -381.46816980682354
    Total Energy =                       -381.4681698068235960
  Basis Set: (6-31G* AUX)
    Blend: CC-PVDZ-JKFIT
  Basis Set: 6-31G*
    Blend: 6-31G*
  Basis Set: (6-31G* AUX)
    Blend: CC-PVDZ-JKFIT
  @DF-RKS Final Energy:  -381.46817294189458
    Total Energy =                       -381.4681729418945793
  Basis Set: 6-31G*
    Blend: 6-31G*
  Basis Set: (6-31G* AUX)
    Blend: CC-PVDZ-JKFIT
  Charge       = 1
  Multiplicity = 1
  Basis Set: 6-31G*
    Blend: 6-31G*
  Basis Set: (6-31G* AUX)
    Blend: CC-PVDZ-JKFIT

    Orbital Energies [Eh]
    ---------------------

    Doubly Occupied:

       1A    -14.571938     2A    -14.571826     3A    -10.499437
       4A    -10.370470     5A    -10.352831     6A    -10.352153
       7A    -10.338330     8A    -10.337191     9A    -10.337061
      10A     -1.186786    11A     -1.095728    12A     -1.011642
      13A     -0.924355    14A     -0.898717    15A     -0.844953
      16A     -0.786700    17A     -0.769705    18A     -0.748482
      19A     -0.730006    20A     -0.689652    21A     -0.668223
      22A     -0.621282    23A     -0.620316    24A     -0.581046
      25A     -0.576045    26A     -0.570053    27A     -0.517404
      28A     -0.501055    29A     -0.494901    30A     -0.476021
      31A     -0.408451    32A     -0.402202

  @DF-RKS Final Energy:  -381.46817320219458

   => Energetics <=

    Nuclear Repulsion Energy =            416.7540979452420515
    One-Electron Energy =               -1328.7874243155765726
    Two-Electron Energy =                 574.9820530724393848
    DFT Exchange-Correlation Energy =     -44.4049745342994200
    Empirical Dispersion Energy =          -0.0119253700000000
    VV10 Nonlocal Energy =                  0.0000000000000000
    Total Energy =                       -381.4681732021945209
    Molecular point group: c1
  Basis Set: 6-31G*
    Blend: 6-31G*
  Basis Set: (6-31G* AUX)
    Blend: CC-PVDZ-JKFIT

  -Total Gradient:
     Atom            X                  Y                   Z
    ------   -----------------  -----------------  -----------------
       1        0.005403330871     0.001658041503    -0.000109908714
       2       -0.004354432436     0.000074837627     0.000094590184
       3       -0.000013515306    -0.000004285296     0.000016046939
       4       -0.000009886997     0.000016079066    -0.000005748875
       5       -0.000000450175    -0.000007144981    -0.000014070145
       6        0.000010281319     0.000005683149     0.000020865372
       7        0.001230430568    -0.005807260128    -0.000090450200
       8       -0.000003436409     0.000005354959    -0.000001154964
       9        0.000005173185    -0.000001092038     0.000001984334
      10        0.000003604114     0.000000520435     0.000002958639
      11       -0.000002498527    -0.000000558926     0.000004364817
      12        0.000000466261    -0.000003613578    -0.000007761375
      13       -0.002247603999     0.004040935511     0.000088283587
      14       -0.000027135127     0.000022038412    -0.000002641574
      15        0.000009398558    -0.000009891453    -0.000000736212
      16        0.000018290602     0.000000375922     0.000010332231
      17       -0.000001500553     0.000007093996    -0.000000963221
      18       -0.000000222662     0.000008734248    -0.000008693639

  **** Optimization is complete! (in 6 steps) ****
    Final optimized geometry and variables:
    Molecular point group: c1

    Geometry (in Angstrom), charge = 1, multiplicity = 1:

    C            0.068098898845    -0.017951163458    -0.177241770250
    C            0.105467155178     1.206659499980     0.510279767650
    C            0.057185127629     1.207607844749     1.902401781461
    C           -0.027069496852     0.000090592226     2.601387736381
    C           -0.077484673298    -1.216246200029     1.913472987434
    C           -0.048877748176    -1.231311465717     0.521338515650
    C            0.030019317787    -0.015437207186    -1.650158938778
    H            0.151175653903     2.143277032621    -0.038169616402
    H            0.076796087606     2.149993630087     2.440243315795
    H           -0.058982753053     0.006896925007     3.686545601575
    H           -0.140315208360    -2.151187739638     2.460887299151
    H           -0.080531331304    -2.173961100955    -0.018113448319
    N           -0.997287664314    -0.576587716369    -2.274635964422
    N            0.987064883062     0.608282060269    -2.325133035434
    H            0.969031137537     0.733931030622    -3.331251945542
    H            1.798209766089     0.954834653875    -1.828506288828
    H           -1.759405801840    -0.959237163358    -1.729344700961
    H           -1.053094350438    -0.669654512727    -3.283001296159

  Dipole Moment: [D]
     X:    -0.0500      Y:     0.0082      Z:    -6.0801     Total:     6.0803

  Mulliken Charges: (a.u.)
   Center  Symbol    Alpha    Beta     Spin     Total
       1     C     2.97701  2.97701  0.00000  0.04599
       2     C     3.07383  3.07383  0.00000 -0.14767
       3     C     3.06215  3.06215  0.00000 -0.12430
       4     C     3.05246  3.05246  0.00000 -0.10493
       5     C     3.06310  3.06310  0.00000 -0.12620
       6     C     3.07839  3.07839  0.00000 -0.15678
       7     C     2.73633  2.73633  0.00000  0.52735
       8     H     0.41333  0.41333  0.00000  0.17335
       9     H     0.40627  0.40627  0.00000  0.18746
      10     H     0.40523  0.40523  0.00000  0.18953
      11     H     0.40630  0.40630  0.00000  0.18741
      12     H     0.41349  0.41349  0.00000  0.17302
      13     N     3.85209  3.85209  0.00000 -0.70418
      14     N     3.85413  3.85413  0.00000 -0.70826
      15     H     0.30546  0.30546  0.00000  0.38909
      16     H     0.29747  0.29747  0.00000  0.40506
      17     H     0.29751  0.29751  0.00000  0.40499
      18     H     0.30546  0.30546  0.00000  0.38909

   Total alpha = 32.00000, Total beta = 32.00000, Total charge =  1.00000

*** Psi4 exiting successfully. Buy a developer a beer!
