                               Psi4 1.2.1 release

  ==> Input File <==

--------------------------------------------------------------------------
set_num_threads(1)
set_memory('5348 MB')

set { scf_mem_safety_factor 0.7 }

set { reference rks }
set { basis cc-pVDZ }

molecule MOL {
    0 1
    noreorient
    nocom
    symmetry c1
    O    1.050400   0.042900  -0.048100
    C    2.474100   0.047400  -0.029000
    C    3.002600  -1.068900  -0.932000
    N    4.462700  -1.072400  -1.006800
    H    0.760400   0.728400   0.578000
    H    2.809900  -0.097900   1.003200
    H    2.817400   1.026800  -0.378600
    H    2.581000  -0.963300  -1.938400
    H    2.653800  -2.036400  -0.553400
    H    4.809030  -0.120799  -0.888510
    H    4.742391  -1.356233  -1.945663
}

set optking { frozen_dihedral = (" 2 3 4 10 ") }

energy, wfn = energy('B3LYP-D3', return_wfn=True)

import os
os.chdir(os.environ['HTMD_PSI4_WORKDIR'])

oeprop(wfn, 'DIPOLE', 'QUADRUPOLE', 'MULLIKEN_CHARGES')

with open('psi4out.xyz', 'w') as f:
    f.write('11 ' )
    f.write('%.12f\n' % energy)
    f.write(MOL.save_string_xyz())
--------------------------------------------------------------------------

    Molecular point group: c1

    Geometry (in Angstrom), charge = 0, multiplicity = 1:

       Center              X                  Y                   Z               Mass
    ------------   -----------------  -----------------  -----------------  -----------------
         O            1.050400000000     0.042900000000    -0.048100000000    15.994914619560
         C            2.474100000000     0.047400000000    -0.029000000000    12.000000000000
         C            3.002600000000    -1.068900000000    -0.932000000000    12.000000000000
         N            4.462700000000    -1.072400000000    -1.006800000000    14.003074004780
         H            0.760400000000     0.728400000000     0.578000000000     1.007825032070
         H            2.809900000000    -0.097900000000     1.003200000000     1.007825032070
         H            2.817400000000     1.026800000000    -0.378600000000     1.007825032070
         H            2.581000000000    -0.963300000000    -1.938400000000     1.007825032070
         H            2.653800000000    -2.036400000000    -0.553400000000     1.007825032070
         H            4.809030000000    -0.120799000000    -0.888510000000     1.007825032070
         H            4.742391000000    -1.356233000000    -1.945663000000     1.007825032070

  Charge       = 0
  Multiplicity = 1
  Basis Set: CC-PVDZ
    Blend: CC-PVDZ
  Basis Set: (CC-PVDZ AUX)
    Blend: CC-PVDZ-JKFIT

    Orbital Energies [Eh]
    ---------------------

    Doubly Occupied:

       1A    -19.130283     2A    -14.303349     3A    -10.229027
       4A    -10.201235     5A     -1.012660     6A     -0.876911
       7A     -0.712880     8A     -0.602152     9A     -0.509351
      10A     -0.473622    11A     -0.470289    12A     -0.413296
      13A     -0.379627    14A     -0.375306    15A     -0.325134
      16A     -0.264195    17A     -0.228985

  @DF-RKS Final Energy:  -210.38851611945003

   => Energetics <=

    Nuclear Repulsion Energy =            130.6348173398170616
    One-Electron Energy =                -544.1473492224631627
    Two-Electron Energy =                 226.6163751567947884
    DFT Exchange-Correlation Energy =     -23.4874580135987365
    Empirical Dispersion Energy =          -0.0049013800000000
    VV10 Nonlocal Energy =                  0.0000000000000000
    Total Energy =                       -210.3885161194500597

  Dipole Moment: [D]
     X:     0.3925      Y:     1.7583      Z:    -0.0730     Total:     1.8031

  Mulliken Charges: (a.u.)
   Center  Symbol    Alpha    Beta     Spin     Total
       1     O     4.13772  4.13772  0.00000 -0.27545
       2     C     2.93948  2.93948  0.00000  0.12103
       3     C     2.97774  2.97774  0.00000  0.04452
       4     N     3.59341  3.59341  0.00000 -0.18682
       5     H     0.42997  0.42997  0.00000  0.14005
       6     H     0.49671  0.49671  0.00000  0.00659
       7     H     0.50374  0.50374  0.00000 -0.00748
       8     H     0.49906  0.49906  0.00000  0.00187
       9     H     0.49020  0.49020  0.00000  0.01960
      10     H     0.46887  0.46887  0.00000  0.06227
      11     H     0.46309  0.46309  0.00000  0.07382

   Total alpha = 17.00000, Total beta = 17.00000, Total charge = -0.00000

*** Psi4 exiting successfully. Buy a developer a beer!
