                               Psi4 1.2.1 release

  ==> Input File <==

--------------------------------------------------------------------------
set_num_threads(1)
set_memory('5348 MB')

set { scf_mem_safety_factor 0.7 }

set { reference rks }
set { basis cc-pVDZ }

molecule MOL {
    0 1
    noreorient
    nocom
    symmetry c1
    O    1.141000   0.017000   0.083000
    C    2.558000   0.086000  -0.005000
    C    3.192000  -0.789000   1.067000
    O    2.198994  -1.594456   1.690337
    H    0.789000   0.590000  -0.620000
    H    2.874000   1.128000   0.115000
    H    2.871000  -0.243000  -1.001000
    H    3.680472  -0.170065   1.826112
    H    3.955611  -1.439990   0.626559
    H    2.656313  -2.129527   2.362234
}

set optking { frozen_dihedral = (" 1 2 3 4 ") }

energy, wfn = energy('B3LYP-D3', return_wfn=True)

import os
os.chdir(os.environ['HTMD_PSI4_WORKDIR'])

oeprop(wfn, 'DIPOLE', 'QUADRUPOLE', 'MULLIKEN_CHARGES')

with open('psi4out.xyz', 'w') as f:
    f.write('10 ' )
    f.write('%.12f\n' % energy)
    f.write(MOL.save_string_xyz())
--------------------------------------------------------------------------

    Molecular point group: c1

    Geometry (in Angstrom), charge = 0, multiplicity = 1:

       Center              X                  Y                   Z               Mass
    ------------   -----------------  -----------------  -----------------  -----------------
         O            1.141000000000     0.017000000000     0.083000000000    15.994914619560
         C            2.558000000000     0.086000000000    -0.005000000000    12.000000000000
         C            3.192000000000    -0.789000000000     1.067000000000    12.000000000000
         O            2.198994000000    -1.594456000000     1.690337000000    15.994914619560
         H            0.789000000000     0.590000000000    -0.620000000000     1.007825032070
         H            2.874000000000     1.128000000000     0.115000000000     1.007825032070
         H            2.871000000000    -0.243000000000    -1.001000000000     1.007825032070
         H            3.680472000000    -0.170065000000     1.826112000000     1.007825032070
         H            3.955611000000    -1.439990000000     0.626559000000     1.007825032070
         H            2.656313000000    -2.129527000000     2.362234000000     1.007825032070

  Charge       = 0
  Multiplicity = 1
  Basis Set: CC-PVDZ
    Blend: CC-PVDZ
  Basis Set: (CC-PVDZ AUX)
    Blend: CC-PVDZ-JKFIT

    Orbital Energies [Eh]
    ---------------------

    Doubly Occupied:

       1A    -19.122066     2A    -19.122014     3A    -10.225683
       4A    -10.225500     5A     -1.016423     6A     -0.993702
       7A     -0.733964     8A     -0.599131     9A     -0.527164
      10A     -0.478479    11A     -0.459232    12A     -0.413583
      13A     -0.393382    14A     -0.326090    15A     -0.323784
      16A     -0.268012    17A     -0.242777

  @DF-RKS Final Energy:  -230.24437042109884

   => Energetics <=

    Nuclear Repulsion Energy =            133.2374281213806739
    One-Electron Energy =                -578.3882540549295754
    Two-Electron Energy =                 239.4514965780243756
    DFT Exchange-Correlation Energy =     -24.5410533455743121
    Empirical Dispersion Energy =          -0.0039877200000000
    VV10 Nonlocal Energy =                  0.0000000000000000
    Total Energy =                       -230.2443704210988358

  Dipole Moment: [D]
     X:     1.9779      Y:     0.7189      Z:    -0.5849     Total:     2.1842

  Mulliken Charges: (a.u.)
   Center  Symbol    Alpha    Beta     Spin     Total
       1     O     4.12865  4.12865  0.00000 -0.25729
       2     C     2.93519  2.93519  0.00000  0.12963
       3     C     2.93532  2.93532  0.00000  0.12935
       4     O     4.12887  4.12887  0.00000 -0.25774
       5     H     0.43200  0.43200  0.00000  0.13600
       6     H     0.50232  0.50232  0.00000 -0.00464
       7     H     0.50181  0.50181  0.00000 -0.00363
       8     H     0.50169  0.50169  0.00000 -0.00338
       9     H     0.50220  0.50220  0.00000 -0.00440
      10     H     0.43195  0.43195  0.00000  0.13610

   Total alpha = 17.00000, Total beta = 17.00000, Total charge = -0.00000

*** Psi4 exiting successfully. Buy a developer a beer!
