                               Psi4 1.2.1 release

  ==> Input File <==

--------------------------------------------------------------------------
set_num_threads(4)
set_memory('3000 MB')

set { scf_mem_safety_factor 0.7 }

set { reference rks }
set { basis 6-31G* }

molecule MOL {
    1 1
    noreorient
    nocom
    symmetry c1
    C   -0.000000  -0.000000  -0.177864
    C    0.036678   1.219374   0.524165
    C    0.031765   1.213120   1.915444
    C    0.000000   0.000000   2.610107
    C   -0.031765  -1.213120   1.915444
    C   -0.036678  -1.219375   0.524165
    C   -0.000000   0.000000  -1.644734
    H    0.018170   2.164705  -0.010854
    H    0.042402   2.152895   2.457886
    H    0.000000   0.000000   3.695756
    H   -0.042402  -2.152895   2.457886
    H   -0.018170  -2.164705  -0.010853
    N   -1.140612  -0.165932  -2.308461
    N    1.140612   0.165932  -2.308461
    H    1.181463   0.265776  -3.315997
    H    2.021932   0.128637  -1.813317
    H   -2.021932  -0.128637  -1.813316
    H   -1.181463  -0.265775  -3.315997
}

set optking { frozen_dihedral = (" 2 1 7 13 ") }

set optking { dynamic_level = 1
 geom_maxiter = 250
 print_trajectory_xyz_file = True }

energy, wfn = optimize('B3LYP-D3', return_wfn=True)

import os
os.chdir(os.environ['HTMD_PSI4_WORKDIR'])

oeprop(wfn, 'DIPOLE', 'QUADRUPOLE', 'MULLIKEN_CHARGES')

with open('psi4out.xyz', 'w') as f:
    f.write('18 ' )
    f.write('%.12f\n' % energy)
    f.write(MOL.save_string_xyz())
--------------------------------------------------------------------------

    Molecular point group: c1
  Charge       = 1
  Multiplicity = 1
  Basis Set: 6-31G*
    Blend: 6-31G*
  Basis Set: (6-31G* AUX)
    Blend: CC-PVDZ-JKFIT
  @DF-RKS Final Energy:  -381.46298609312441
    Total Energy =                       -381.4629860931244707
    Molecular point group: c1
  Basis Set: 6-31G*
    Blend: 6-31G*
  Basis Set: (6-31G* AUX)
    Blend: CC-PVDZ-JKFIT
  Basis Set: 6-31G*
    Blend: 6-31G*
  Basis Set: (6-31G* AUX)
    Blend: CC-PVDZ-JKFIT
  @DF-RKS Final Energy:  -381.46438191964683
    Total Energy =                       -381.4643819196468257
  Basis Set: 6-31G*
    Blend: 6-31G*
  Basis Set: (6-31G* AUX)
    Blend: CC-PVDZ-JKFIT
  Basis Set: 6-31G*
    Blend: 6-31G*
  @DF-RKS Final Energy:  -381.46464217262258
    Total Energy =                       -381.4646421726226322
  @DF-RKS Final Energy:  -381.46466304754887
    Total Energy =                       -381.4646630475488678
  Basis Set: (6-31G* AUX)
    Blend: CC-PVDZ-JKFIT
  Basis Set: 6-31G*
    Blend: 6-31G*
  Basis Set: (6-31G* AUX)
    Blend: CC-PVDZ-JKFIT
  @DF-RKS Final Energy:  -381.46466743986099
    Total Energy =                       -381.4646674398609889
  Basis Set: 6-31G*
    Blend: 6-31G*
  Basis Set: (6-31G* AUX)
    Blend: CC-PVDZ-JKFIT
  Charge       = 1
  Multiplicity = 1
  Basis Set: 6-31G*
    Blend: 6-31G*
  Basis Set: (6-31G* AUX)
    Blend: CC-PVDZ-JKFIT

    Orbital Energies [Eh]
    ---------------------

    Doubly Occupied:

       1A    -14.576117     2A    -14.576029     3A    -10.502862
       4A    -10.368099     5A    -10.349108     6A    -10.348776
       7A    -10.333819     8A    -10.333593     9A    -10.332917
      10A     -1.190456    11A     -1.099573    12A     -1.008833
      13A     -0.922013    14A     -0.895107    15A     -0.845538
      16A     -0.788090    17A     -0.765785    18A     -0.754602
      19A     -0.728130    20A     -0.691740    21A     -0.666898
      22A     -0.623523    23A     -0.615917    24A     -0.577742
      25A     -0.573113    26A     -0.567305    27A     -0.515500
      28A     -0.496647    29A     -0.491609    30A     -0.479895
      31A     -0.404649    32A     -0.398319

  @DF-RKS Final Energy:  -381.46466772361839

   => Energetics <=

    Nuclear Repulsion Energy =            416.2631746290151682
    One-Electron Energy =               -1327.8649306240490660
    Two-Electron Energy =                 574.5528610302113748
    DFT Exchange-Correlation Energy =     -44.4040873787958361
    Empirical Dispersion Energy =          -0.0116853800000000
    VV10 Nonlocal Energy =                  0.0000000000000000
    Total Energy =                       -381.4646677236184473
    Molecular point group: c1
  Basis Set: 6-31G*
    Blend: 6-31G*
  Basis Set: (6-31G* AUX)
    Blend: CC-PVDZ-JKFIT

  -Total Gradient:
     Atom            X                  Y                   Z
    ------   -----------------  -----------------  -----------------
       1        0.004433968747     0.001354026780    -0.000060811085
       2       -0.003178156991     0.000061626718     0.000044797574
       3       -0.000004831943    -0.000005840695     0.000011431484
       4       -0.000013747231     0.000012252379    -0.000006338331
       5        0.000003371739    -0.000005939180    -0.000008041515
       6       -0.000007853069    -0.000001097192     0.000004735726
       7       -0.000716838983    -0.004768311975    -0.000027512509
       8       -0.000003585552    -0.000000334820     0.000000726433
       9        0.000003316397    -0.000001132801    -0.000000259552
      10        0.000005335843     0.000000628618     0.000000643973
      11        0.000000177856     0.000001853719     0.000002389317
      12        0.000004645234     0.000000364557    -0.000002388881
      13       -0.000537010549     0.003328046751     0.000044290426
      14       -0.000024573145     0.000025897903     0.000001643076
      15        0.000002825969    -0.000013582431     0.000005200113
      16       -0.000000166930    -0.000010914487    -0.000001179731
      17        0.000031652599     0.000010763506    -0.000022679196
      18       -0.000001767642     0.000005071849     0.000001330796

  **** Optimization is complete! (in 6 steps) ****
    Final optimized geometry and variables:
    Molecular point group: c1

    Geometry (in Angstrom), charge = 1, multiplicity = 1:

    C            0.047284331312    -0.014775418834    -0.173984139442
    C            0.085452964592     1.209969628654     0.508423873263
    C            0.052502620365     1.209491337296     1.902115915942
    C           -0.020456931353     0.001971306287     2.601580647692
    C           -0.070210767300    -1.213532127843     1.913887512625
    C           -0.050210015966    -1.229468327518     0.520066778102
    C            0.018537481419    -0.014388971719    -1.656767607792
    H            0.136725688864     2.145932861937    -0.040645056150
    H            0.080038993320     2.151979573851     2.439562755251
    H           -0.042463423411     0.008430209452     3.686950467082
    H           -0.128243771075    -2.149194805843     2.460720806512
    H           -0.092766369228    -2.171178669983    -0.019926532964
    N           -1.137513080893    -0.191985457834    -2.277044450287
    N            1.138623725379     0.214443077798    -2.324296146115
    H            1.185996613246     0.279899573171    -3.335928836655
    H            2.005177372893     0.319586575044    -1.811085802923
    H           -1.976232771836    -0.326251740519    -1.725879414134
    H           -1.232242660328    -0.230928623397    -3.286751770008

  Dipole Moment: [D]
     X:    -0.0375      Y:    -0.0022      Z:    -6.4845     Total:     6.4846

  Mulliken Charges: (a.u.)
   Center  Symbol    Alpha    Beta     Spin     Total
       1     C     2.99247  2.99247  0.00000  0.01507
       2     C     3.06989  3.06989  0.00000 -0.13978
       3     C     3.06267  3.06267  0.00000 -0.12534
       4     C     3.05358  3.05358  0.00000 -0.10717
       5     C     3.06290  3.06290  0.00000 -0.12581
       6     C     3.07238  3.07238  0.00000 -0.14476
       7     C     2.74672  2.74672  0.00000  0.50655
       8     H     0.41353  0.41353  0.00000  0.17295
       9     H     0.40729  0.40729  0.00000  0.18543
      10     H     0.40667  0.40667  0.00000  0.18665
      11     H     0.40731  0.40731  0.00000  0.18538
      12     H     0.41368  0.41368  0.00000  0.17264
      13     N     3.84448  3.84448  0.00000 -0.68897
      14     N     3.84538  3.84538  0.00000 -0.69076
      15     H     0.30506  0.30506  0.00000  0.38989
      16     H     0.29542  0.29542  0.00000  0.40916
      17     H     0.29554  0.29554  0.00000  0.40893
      18     H     0.30504  0.30504  0.00000  0.38993

   Total alpha = 32.00000, Total beta = 32.00000, Total charge =  1.00000

*** Psi4 exiting successfully. Buy a developer a beer!
