                               Psi4 1.2.1 release

  ==> Input File <==

--------------------------------------------------------------------------
set_num_threads(1)
set_memory('5348 MB')

set { scf_mem_safety_factor 0.7 }

set { reference rks }
set { basis cc-pVDZ }

molecule MOL {
    0 1
    noreorient
    nocom
    symmetry c1
    O    1.014300  -0.002300   0.060500
    O    2.462400  -0.107500  -0.002400
    H    0.821200  -0.823600  -0.430600
    H    2.502885  -0.584961  -0.852828
}

set optking { frozen_dihedral = (" 3 1 2 4 ") }

energy, wfn = energy('B3LYP-D3', return_wfn=True)

import os
os.chdir(os.environ['HTMD_PSI4_WORKDIR'])

oeprop(wfn, 'DIPOLE', 'QUADRUPOLE', 'MULLIKEN_CHARGES')

with open('psi4out.xyz', 'w') as f:
    f.write('4 ' )
    f.write('%.12f\n' % energy)
    f.write(MOL.save_string_xyz())
--------------------------------------------------------------------------

    Molecular point group: c1

    Geometry (in Angstrom), charge = 0, multiplicity = 1:

       Center              X                  Y                   Z               Mass
    ------------   -----------------  -----------------  -----------------  -----------------
         O            1.014300000000    -0.002300000000     0.060500000000    15.994914619560
         O            2.462400000000    -0.107500000000    -0.002400000000    15.994914619560
         H            0.821200000000    -0.823600000000    -0.430600000000     1.007825032070
         H            2.502885000000    -0.584961000000    -0.852828000000     1.007825032070

  Charge       = 0
  Multiplicity = 1
  Basis Set: CC-PVDZ
    Blend: CC-PVDZ
  Basis Set: (CC-PVDZ AUX)
    Blend: CC-PVDZ-JKFIT

    Orbital Energies [Eh]
    ---------------------

    Doubly Occupied:

       1A    -19.191950     2A    -19.191918     3A     -1.121267
       4A     -0.887470     5A     -0.557549     6A     -0.427760
       7A     -0.421391     8A     -0.354517     9A     -0.252372

  @DF-RKS Final Energy:  -151.53697571003192

   => Energetics <=

    Nuclear Repulsion Energy =             36.8787415677261663
    One-Electron Energy =                -281.6346108955265208
    Two-Electron Energy =                 107.6817374450349121
    DFT Exchange-Correlation Energy =     -14.4626606872664887
    Empirical Dispersion Energy =          -0.0001831400000000
    VV10 Nonlocal Energy =                  0.0000000000000000
    Total Energy =                       -151.5369757100319248

  Dipole Moment: [D]
     X:    -0.2480      Y:    -2.1104      Z:    -2.1799     Total:     3.0443

  Mulliken Charges: (a.u.)
   Center  Symbol    Alpha    Beta     Spin     Total
       1     O     4.07965  4.07965  0.00000 -0.15931
       2     O     4.07964  4.07964  0.00000 -0.15927
       3     H     0.42035  0.42035  0.00000  0.15931
       4     H     0.42036  0.42036  0.00000  0.15927

   Total alpha =  9.00000, Total beta =  9.00000, Total charge =  0.00000

*** Psi4 exiting successfully. Buy a developer a beer!
