                               Psi4 1.2.1 release

  ==> Input File <==

--------------------------------------------------------------------------
set_num_threads(1)
set_memory('5348 MB')

set { scf_mem_safety_factor 0.7 }

set { reference rks }
set { basis cc-pVDZ }

molecule MOL {
    0 1
    noreorient
    nocom
    symmetry c1
    O    1.050400   0.042900  -0.048100
    C    2.474100   0.047400  -0.029000
    C    3.002600  -1.068900  -0.932000
    N    4.462700  -1.072400  -1.006800
    H    0.760400   0.728400   0.578000
    H    2.809900  -0.097900   1.003200
    H    2.817400   1.026800  -0.378600
    H    2.581000  -0.963300  -1.938400
    H    2.653800  -2.036400  -0.553400
    H    4.849072  -1.041614  -0.063799
    H    4.769899  -0.213042  -1.462195
}

set optking { frozen_dihedral = (" 2 3 4 10 ") }

energy, wfn = energy('B3LYP-D3', return_wfn=True)

import os
os.chdir(os.environ['HTMD_PSI4_WORKDIR'])

oeprop(wfn, 'DIPOLE', 'QUADRUPOLE', 'MULLIKEN_CHARGES')

with open('psi4out.xyz', 'w') as f:
    f.write('11 ' )
    f.write('%.12f\n' % energy)
    f.write(MOL.save_string_xyz())
--------------------------------------------------------------------------

    Molecular point group: c1

    Geometry (in Angstrom), charge = 0, multiplicity = 1:

       Center              X                  Y                   Z               Mass
    ------------   -----------------  -----------------  -----------------  -----------------
         O            1.050400000000     0.042900000000    -0.048100000000    15.994914619560
         C            2.474100000000     0.047400000000    -0.029000000000    12.000000000000
         C            3.002600000000    -1.068900000000    -0.932000000000    12.000000000000
         N            4.462700000000    -1.072400000000    -1.006800000000    14.003074004780
         H            0.760400000000     0.728400000000     0.578000000000     1.007825032070
         H            2.809900000000    -0.097900000000     1.003200000000     1.007825032070
         H            2.817400000000     1.026800000000    -0.378600000000     1.007825032070
         H            2.581000000000    -0.963300000000    -1.938400000000     1.007825032070
         H            2.653800000000    -2.036400000000    -0.553400000000     1.007825032070
         H            4.849072000000    -1.041614000000    -0.063799000000     1.007825032070
         H            4.769899000000    -0.213042000000    -1.462195000000     1.007825032070

  Charge       = 0
  Multiplicity = 1
  Basis Set: CC-PVDZ
    Blend: CC-PVDZ
  Basis Set: (CC-PVDZ AUX)
    Blend: CC-PVDZ-JKFIT

    Orbital Energies [Eh]
    ---------------------

    Doubly Occupied:

       1A    -19.128445     2A    -14.308255     3A    -10.224611
       4A    -10.202904     5A     -1.011153     6A     -0.880096
       7A     -0.710727     8A     -0.605290     9A     -0.505837
      10A     -0.498590    11A     -0.439073    12A     -0.420519
      13A     -0.402377    14A     -0.351065    15A     -0.331932
      16A     -0.263535    17A     -0.236624

  @DF-RKS Final Energy:  -210.39342545614946

   => Energetics <=

    Nuclear Repulsion Energy =            130.8822988204445323
    One-Electron Energy =                -544.6273113756460589
    Two-Electron Energy =                 226.8425354880583882
    DFT Exchange-Correlation Energy =     -23.4857640490063133
    Empirical Dispersion Energy =          -0.0051843400000000
    VV10 Nonlocal Energy =                  0.0000000000000000
    Total Energy =                       -210.3934254561494583

  Dipole Moment: [D]
     X:     0.5110      Y:     1.9433      Z:     1.4577     Total:     2.4824

  Mulliken Charges: (a.u.)
   Center  Symbol    Alpha    Beta     Spin     Total
       1     O     4.13877  4.13877  0.00000 -0.27754
       2     C     2.94204  2.94204  0.00000  0.11593
       3     C     2.97756  2.97756  0.00000  0.04487
       4     N     3.59037  3.59037  0.00000 -0.18075
       5     H     0.43098  0.43098  0.00000  0.13804
       6     H     0.50467  0.50467  0.00000 -0.00935
       7     H     0.50662  0.50662  0.00000 -0.01323
       8     H     0.48856  0.48856  0.00000  0.02287
       9     H     0.48916  0.48916  0.00000  0.02169
      10     H     0.46611  0.46611  0.00000  0.06779
      11     H     0.46516  0.46516  0.00000  0.06967

   Total alpha = 17.00000, Total beta = 17.00000, Total charge =  0.00000

*** Psi4 exiting successfully. Buy a developer a beer!
