                               Psi4 1.2.1 release

  ==> Input File <==

--------------------------------------------------------------------------
set_num_threads(1)
set_memory('5348 MB')

set { scf_mem_safety_factor 0.7 }

set { reference rks }
set { basis cc-pVDZ }

molecule MOL {
    0 1
    noreorient
    nocom
    symmetry c1
    O    1.141000   0.017000   0.083000
    C    2.558000   0.086000  -0.005000
    C    3.192000  -0.789000   1.067000
    O    4.610000  -0.719000   0.979000
    H    0.789000   0.590000  -0.620000
    H    2.874000   1.128000   0.115000
    H    2.871000  -0.243000  -1.001000
    H    2.876000  -1.830000   0.947000
    H    2.879000  -0.459000   2.064000
    H    4.814862  -0.001224   0.354728
}

set optking { frozen_dihedral = (" 2 3 4 10 ") }

energy, wfn = energy('B3LYP-D3', return_wfn=True)

import os
os.chdir(os.environ['HTMD_PSI4_WORKDIR'])

oeprop(wfn, 'DIPOLE', 'QUADRUPOLE', 'MULLIKEN_CHARGES')

with open('psi4out.xyz', 'w') as f:
    f.write('10 ' )
    f.write('%.12f\n' % energy)
    f.write(MOL.save_string_xyz())
--------------------------------------------------------------------------

    Molecular point group: c1

    Geometry (in Angstrom), charge = 0, multiplicity = 1:

       Center              X                  Y                   Z               Mass
    ------------   -----------------  -----------------  -----------------  -----------------
         O            1.141000000000     0.017000000000     0.083000000000    15.994914619560
         C            2.558000000000     0.086000000000    -0.005000000000    12.000000000000
         C            3.192000000000    -0.789000000000     1.067000000000    12.000000000000
         O            4.610000000000    -0.719000000000     0.979000000000    15.994914619560
         H            0.789000000000     0.590000000000    -0.620000000000     1.007825032070
         H            2.874000000000     1.128000000000     0.115000000000     1.007825032070
         H            2.871000000000    -0.243000000000    -1.001000000000     1.007825032070
         H            2.876000000000    -1.830000000000     0.947000000000     1.007825032070
         H            2.879000000000    -0.459000000000     2.064000000000     1.007825032070
         H            4.814862000000    -0.001224000000     0.354728000000     1.007825032070

  Charge       = 0
  Multiplicity = 1
  Basis Set: CC-PVDZ
    Blend: CC-PVDZ
  Basis Set: (CC-PVDZ AUX)
    Blend: CC-PVDZ-JKFIT

    Orbital Energies [Eh]
    ---------------------

    Doubly Occupied:

       1A    -19.139661     2A    -19.133267     3A    -10.237479
       4A    -10.226773     5A     -1.025866     6A     -1.012446
       7A     -0.733689     8A     -0.626085     9A     -0.518552
      10A     -0.486575    11A     -0.476933    12A     -0.423432
      13A     -0.399205    14A     -0.355262    15A     -0.323781
      16A     -0.273429    17A     -0.265708

  @DF-RKS Final Energy:  -230.25577359872824

   => Energetics <=

    Nuclear Repulsion Energy =            130.1377476767676740
    One-Electron Energy =                -571.8379389626966258
    Two-Electron Energy =                 235.9875633045111272
    DFT Exchange-Correlation Energy =     -24.5385126373104328
    Empirical Dispersion Energy =          -0.0046329800000000
    VV10 Nonlocal Energy =                  0.0000000000000000
    Total Energy =                       -230.2557735987282399

  Dipole Moment: [D]
     X:    -0.4097      Y:     1.8443      Z:    -1.9463     Total:     2.7124

  Mulliken Charges: (a.u.)
   Center  Symbol    Alpha    Beta     Spin     Total
       1     O     4.13651  4.13651  0.00000 -0.27302
       2     C     2.96138  2.96138  0.00000  0.07724
       3     C     2.91981  2.91981  0.00000  0.16037
       4     O     4.13648  4.13648  0.00000 -0.27295
       5     H     0.42796  0.42796  0.00000  0.14409
       6     H     0.50114  0.50114  0.00000 -0.00228
       7     H     0.49904  0.49904  0.00000  0.00193
       8     H     0.49073  0.49073  0.00000  0.01854
       9     H     0.49378  0.49378  0.00000  0.01243
      10     H     0.43317  0.43317  0.00000  0.13366

   Total alpha = 17.00000, Total beta = 17.00000, Total charge =  0.00000

*** Psi4 exiting successfully. Buy a developer a beer!
