                               Psi4 1.2.1 release

  ==> Input File <==

--------------------------------------------------------------------------
set_num_threads(1)
set_memory('5348 MB')

set { scf_mem_safety_factor 0.7 }

set { reference rks }
set { basis cc-pVDZ }

molecule MOL {
    0 1
    noreorient
    nocom
    symmetry c1
    O    1.050400   0.042900  -0.048100
    C    2.474100   0.047400  -0.029000
    C    3.002600  -1.068900  -0.932000
    N    2.567422  -0.908621  -2.318518
    H    0.760400   0.728400   0.578000
    H    2.809900  -0.097900   1.003200
    H    2.817400   1.026800  -0.378600
    H    2.672465  -2.042327  -0.550962
    H    4.097734  -1.079192  -0.891620
    H    1.555215  -1.019579  -2.369575
    H    2.959596  -1.667877  -2.875276
}

set optking { frozen_dihedral = (" 1 2 3 4 ") }

energy, wfn = energy('B3LYP-D3', return_wfn=True)

import os
os.chdir(os.environ['HTMD_PSI4_WORKDIR'])

oeprop(wfn, 'DIPOLE', 'QUADRUPOLE', 'MULLIKEN_CHARGES')

with open('psi4out.xyz', 'w') as f:
    f.write('11 ' )
    f.write('%.12f\n' % energy)
    f.write(MOL.save_string_xyz())
--------------------------------------------------------------------------

    Molecular point group: c1

    Geometry (in Angstrom), charge = 0, multiplicity = 1:

       Center              X                  Y                   Z               Mass
    ------------   -----------------  -----------------  -----------------  -----------------
         O            1.050400000000     0.042900000000    -0.048100000000    15.994914619560
         C            2.474100000000     0.047400000000    -0.029000000000    12.000000000000
         C            3.002600000000    -1.068900000000    -0.932000000000    12.000000000000
         N            2.567422000000    -0.908621000000    -2.318518000000    14.003074004780
         H            0.760400000000     0.728400000000     0.578000000000     1.007825032070
         H            2.809900000000    -0.097900000000     1.003200000000     1.007825032070
         H            2.817400000000     1.026800000000    -0.378600000000     1.007825032070
         H            2.672465000000    -2.042327000000    -0.550962000000     1.007825032070
         H            4.097734000000    -1.079192000000    -0.891620000000     1.007825032070
         H            1.555215000000    -1.019579000000    -2.369575000000     1.007825032070
         H            2.959596000000    -1.667877000000    -2.875276000000     1.007825032070

  Charge       = 0
  Multiplicity = 1
  Basis Set: CC-PVDZ
    Blend: CC-PVDZ
  Basis Set: (CC-PVDZ AUX)
    Blend: CC-PVDZ-JKFIT

    Orbital Energies [Eh]
    ---------------------

    Doubly Occupied:

       1A    -19.128201     2A    -14.296277     3A    -10.223691
       4A    -10.202456     5A     -1.010891     6A     -0.868878
       7A     -0.713865     8A     -0.593236     9A     -0.514222
      10A     -0.471494    11A     -0.458379    12A     -0.403276
      13A     -0.394918    14A     -0.361730    15A     -0.326841
      16A     -0.261856    17A     -0.224731

  @DF-RKS Final Energy:  -210.39391387671955

   => Energetics <=

    Nuclear Repulsion Energy =            132.9231315425909941
    One-Electron Energy =                -548.8425764534505333
    Two-Electron Energy =                 229.0158287845966356
    DFT Exchange-Correlation Energy =     -23.4851483304566742
    Empirical Dispersion Energy =          -0.0051494200000000
    VV10 Nonlocal Energy =                  0.0000000000000000
    Total Energy =                       -210.3939138767195516

  Dipole Moment: [D]
     X:     0.3048      Y:    -0.2229      Z:     1.1288     Total:     1.1903

  Mulliken Charges: (a.u.)
   Center  Symbol    Alpha    Beta     Spin     Total
       1     O     4.14112  4.14112  0.00000 -0.28225
       2     C     2.92723  2.92723  0.00000  0.14555
       3     C     2.98083  2.98083  0.00000  0.03835
       4     N     3.59159  3.59159  0.00000 -0.18318
       5     H     0.42944  0.42944  0.00000  0.14113
       6     H     0.50425  0.50425  0.00000 -0.00849
       7     H     0.49951  0.49951  0.00000  0.00099
       8     H     0.50228  0.50228  0.00000 -0.00457
       9     H     0.49551  0.49551  0.00000  0.00899
      10     H     0.46157  0.46157  0.00000  0.07686
      11     H     0.46668  0.46668  0.00000  0.06663

   Total alpha = 17.00000, Total beta = 17.00000, Total charge = -0.00000

*** Psi4 exiting successfully. Buy a developer a beer!
