                               Psi4 1.2.1 release

  ==> Input File <==

--------------------------------------------------------------------------
set_num_threads(1)
set_memory('5348 MB')

set { scf_mem_safety_factor 0.7 }

set { reference rks }
set { basis cc-pVDZ }

molecule MOL {
    0 1
    noreorient
    nocom
    symmetry c1
    O    1.014300  -0.002300   0.060500
    O    2.462400  -0.107500  -0.002400
    H    0.821200  -0.823600  -0.430600
    H    2.511060  -1.070769   0.147869
}

set optking { frozen_dihedral = (" 3 1 2 4 ") }

set optking { dynamic_level = 1
 geom_maxiter = 250
 print_trajectory_xyz_file = True }

energy, wfn = optimize('B3LYP-D3', return_wfn=True)

import os
os.chdir(os.environ['HTMD_PSI4_WORKDIR'])

oeprop(wfn, 'DIPOLE', 'QUADRUPOLE', 'MULLIKEN_CHARGES')

with open('psi4out.xyz', 'w') as f:
    f.write('4 ' )
    f.write('%.12f\n' % energy)
    f.write(MOL.save_string_xyz())
--------------------------------------------------------------------------

    Molecular point group: c1
  Charge       = 0
  Multiplicity = 1
  Basis Set: CC-PVDZ
    Blend: CC-PVDZ
  Basis Set: (CC-PVDZ AUX)
    Blend: CC-PVDZ-JKFIT
  @DF-RKS Final Energy:  -151.53919192880844
    Total Energy =                       -151.5391919288084068
    Molecular point group: c1
  Basis Set: CC-PVDZ
    Blend: CC-PVDZ
  Basis Set: (CC-PVDZ AUX)
    Blend: CC-PVDZ-JKFIT
  Basis Set: CC-PVDZ
    Blend: CC-PVDZ
  Basis Set: (CC-PVDZ AUX)
    Blend: CC-PVDZ-JKFIT
  @DF-RKS Final Energy:  -151.54167422566806
    Total Energy =                       -151.5416742256680891
  Basis Set: CC-PVDZ
    Blend: CC-PVDZ
  Basis Set: (CC-PVDZ AUX)
    Blend: CC-PVDZ-JKFIT
  Basis Set: CC-PVDZ
    Blend: CC-PVDZ
  @DF-RKS Final Energy:  -151.54260983451633
    Total Energy =                       -151.5426098345163268
  Basis Set: (CC-PVDZ AUX)
    Blend: CC-PVDZ-JKFIT
  Basis Set: CC-PVDZ
    Blend: CC-PVDZ
  Basis Set: (CC-PVDZ AUX)
    Blend: CC-PVDZ-JKFIT
  @DF-RKS Final Energy:  -151.54264350871799
    Total Energy =                       -151.5426435087179868
  Basis Set: CC-PVDZ
    Blend: CC-PVDZ
  Basis Set: (CC-PVDZ AUX)
    Blend: CC-PVDZ-JKFIT
  Charge       = 0
  Multiplicity = 1
  Basis Set: CC-PVDZ
    Blend: CC-PVDZ
  Basis Set: (CC-PVDZ AUX)
    Blend: CC-PVDZ-JKFIT

    Orbital Energies [Eh]
    ---------------------

    Doubly Occupied:

       1A    -19.190151     2A    -19.190119     3A     -1.110351
       4A     -0.892157     5A     -0.558592     6A     -0.423849
       7A     -0.418801     8A     -0.341451     9A     -0.255045

  @DF-RKS Final Energy:  -151.54264660916812

   => Energetics <=

    Nuclear Repulsion Energy =             36.6304804718626684
    One-Electron Energy =                -281.2032152069349422
    Two-Electron Energy =                 107.4889399375241794
    DFT Exchange-Correlation Energy =     -14.4585537216200297
    Empirical Dispersion Energy =          -0.0002980900000000
    VV10 Nonlocal Energy =                  0.0000000000000000
    Total Energy =                       -151.5426466091681448
    Molecular point group: c1
  Basis Set: CC-PVDZ
    Blend: CC-PVDZ
  Basis Set: (CC-PVDZ AUX)
    Blend: CC-PVDZ-JKFIT

  -Total Gradient:
     Atom            X                  Y                   Z
    ------   -----------------  -----------------  -----------------
       1        0.000179720436     0.003142900961    -0.006349057070
       2        0.000121948514     0.000587124509     0.007061184905
       3       -0.000132101727    -0.002845152460     0.004752298678
       4       -0.000170085984    -0.000891283568    -0.005465650782

  **** Optimization is complete! (in 5 steps) ****
    Final optimized geometry and variables:
    Molecular point group: c1

    Geometry (in Angstrom), charge = 0, multiplicity = 1:

    O            1.012955249446    -0.008316977180     0.036086156852
    O            2.462055272304    -0.122131264281     0.018055297291
    H            0.714592279867    -0.801281994215    -0.445787203136
    H            2.619357198383    -1.072438764325     0.167014748993

  Dipole Moment: [D]
     X:    -0.2371      Y:    -2.9304      Z:    -0.5596     Total:     2.9927

  Mulliken Charges: (a.u.)
   Center  Symbol    Alpha    Beta     Spin     Total
       1     O     4.08220  4.08220  0.00000 -0.16440
       2     O     4.08220  4.08220  0.00000 -0.16440
       3     H     0.41780  0.41780  0.00000  0.16440
       4     H     0.41780  0.41780  0.00000  0.16440

   Total alpha =  9.00000, Total beta =  9.00000, Total charge =  0.00000

*** Psi4 exiting successfully. Buy a developer a beer!
