                               Psi4 1.2.1 release

  ==> Input File <==

--------------------------------------------------------------------------
set_num_threads(1)
set_memory('5348 MB')

set { scf_mem_safety_factor 0.7 }

set { reference rks }
set { basis cc-pVDZ }

molecule MOL {
    0 1
    noreorient
    nocom
    symmetry c1
    O    1.050400   0.042900  -0.048100
    C    2.474100   0.047400  -0.029000
    C    3.002600  -1.068900  -0.932000
    N    4.462700  -1.072400  -1.006800
    H    0.781860   0.347571  -0.931884
    H    2.809900  -0.097900   1.003200
    H    2.817400   1.026800  -0.378600
    H    2.581000  -0.963300  -1.938400
    H    2.653800  -2.036400  -0.553400
    H    4.779000  -0.221000  -1.470000
    H    4.758600  -1.842500  -1.606500
}

set optking { frozen_dihedral = (" 3 2 1 5 ") }

energy, wfn = energy('B3LYP-D3', return_wfn=True)

import os
os.chdir(os.environ['HTMD_PSI4_WORKDIR'])

oeprop(wfn, 'DIPOLE', 'QUADRUPOLE', 'MULLIKEN_CHARGES')

with open('psi4out.xyz', 'w') as f:
    f.write('11 ' )
    f.write('%.12f\n' % energy)
    f.write(MOL.save_string_xyz())
--------------------------------------------------------------------------

    Molecular point group: c1

    Geometry (in Angstrom), charge = 0, multiplicity = 1:

       Center              X                  Y                   Z               Mass
    ------------   -----------------  -----------------  -----------------  -----------------
         O            1.050400000000     0.042900000000    -0.048100000000    15.994914619560
         C            2.474100000000     0.047400000000    -0.029000000000    12.000000000000
         C            3.002600000000    -1.068900000000    -0.932000000000    12.000000000000
         N            4.462700000000    -1.072400000000    -1.006800000000    14.003074004780
         H            0.781860000000     0.347571000000    -0.931884000000     1.007825032070
         H            2.809900000000    -0.097900000000     1.003200000000     1.007825032070
         H            2.817400000000     1.026800000000    -0.378600000000     1.007825032070
         H            2.581000000000    -0.963300000000    -1.938400000000     1.007825032070
         H            2.653800000000    -2.036400000000    -0.553400000000     1.007825032070
         H            4.779000000000    -0.221000000000    -1.470000000000     1.007825032070
         H            4.758600000000    -1.842500000000    -1.606500000000     1.007825032070

  Charge       = 0
  Multiplicity = 1
  Basis Set: CC-PVDZ
    Blend: CC-PVDZ
  Basis Set: (CC-PVDZ AUX)
    Blend: CC-PVDZ-JKFIT

    Orbital Energies [Eh]
    ---------------------

    Doubly Occupied:

       1A    -19.129577     2A    -14.306840     3A    -10.224967
       4A    -10.203338     5A     -1.012006     6A     -0.878885
       7A     -0.711277     8A     -0.608315     9A     -0.512547
      10A     -0.466514    11A     -0.461789    12A     -0.424083
      13A     -0.394743    14A     -0.365294    15A     -0.322965
      16A     -0.264951    17A     -0.234101

  @DF-RKS Final Energy:  -210.39249407052935

   => Energetics <=

    Nuclear Repulsion Energy =            130.8165832539229996
    One-Electron Energy =                -544.4917835231238996
    Two-Electron Energy =                 226.7737585705673382
    DFT Exchange-Correlation Energy =     -23.4858925518958159
    Empirical Dispersion Energy =          -0.0051598200000000
    VV10 Nonlocal Energy =                  0.0000000000000000
    Total Energy =                       -210.3924940705293523

  Dipole Moment: [D]
     X:     0.5548      Y:     0.4418      Z:    -2.4294     Total:     2.5308

  Mulliken Charges: (a.u.)
   Center  Symbol    Alpha    Beta     Spin     Total
       1     O     4.13935  4.13935  0.00000 -0.27870
       2     C     2.92215  2.92215  0.00000  0.15570
       3     C     2.99218  2.99218  0.00000  0.01563
       4     N     3.59252  3.59252  0.00000 -0.18503
       5     H     0.43203  0.43203  0.00000  0.13595
       6     H     0.48596  0.48596  0.00000  0.02808
       7     H     0.50391  0.50391  0.00000 -0.00782
       8     H     0.51192  0.51192  0.00000 -0.02384
       9     H     0.48948  0.48948  0.00000  0.02105
      10     H     0.46639  0.46639  0.00000  0.06722
      11     H     0.46411  0.46411  0.00000  0.07178

   Total alpha = 17.00000, Total beta = 17.00000, Total charge =  0.00000

*** Psi4 exiting successfully. Buy a developer a beer!
