                               Psi4 1.2.1 release

  ==> Input File <==

--------------------------------------------------------------------------
set_num_threads(4)
set_memory('3000 MB')

set { scf_mem_safety_factor 0.7 }

set { reference rks }
set { basis 6-31G* }

molecule MOL {
    1 1
    noreorient
    nocom
    symmetry c1
    C   -0.000000  -0.000000  -0.177864
    C    0.036678   1.219374   0.524165
    C    0.031765   1.213120   1.915444
    C    0.000000   0.000000   2.610107
    C   -0.031765  -1.213120   1.915444
    C   -0.036678  -1.219375   0.524165
    C   -0.000000   0.000000  -1.644734
    H    0.018170   2.164705  -0.010854
    H    0.042402   2.152895   2.457886
    H    0.000000   0.000000   3.695756
    H   -0.042402  -2.152895   2.457886
    H   -0.018170  -2.164705  -0.010853
    N   -1.070765   0.426605  -2.308460
    N    1.070765  -0.426605  -2.308461
    H    1.156065  -0.360563  -3.315997
    H    1.815363  -0.899563  -1.813317
    H   -1.815363   0.899563  -1.813316
    H   -1.156065   0.360564  -3.315997
}

set optking { frozen_dihedral = (" 2 1 7 13 ") }

set optking { dynamic_level = 1
 geom_maxiter = 250
 print_trajectory_xyz_file = True }

energy, wfn = optimize('B3LYP-D3', return_wfn=True)

import os
os.chdir(os.environ['HTMD_PSI4_WORKDIR'])

oeprop(wfn, 'DIPOLE', 'QUADRUPOLE', 'MULLIKEN_CHARGES')

with open('psi4out.xyz', 'w') as f:
    f.write('18 ' )
    f.write('%.12f\n' % energy)
    f.write(MOL.save_string_xyz())
--------------------------------------------------------------------------

    Molecular point group: c1
  Charge       = 1
  Multiplicity = 1
  Basis Set: 6-31G*
    Blend: 6-31G*
  Basis Set: (6-31G* AUX)
    Blend: CC-PVDZ-JKFIT
  @DF-RKS Final Energy:  -381.46261572865188
    Total Energy =                       -381.4626157286518833
    Molecular point group: c1
  Basis Set: 6-31G*
    Blend: 6-31G*
  Basis Set: (6-31G* AUX)
    Blend: CC-PVDZ-JKFIT
  Basis Set: 6-31G*
    Blend: 6-31G*
  Basis Set: (6-31G* AUX)
    Blend: CC-PVDZ-JKFIT
  @DF-RKS Final Energy:  -381.46544480264726
    Total Energy =                       -381.4654448026473119
  Basis Set: 6-31G*
    Blend: 6-31G*
  Basis Set: (6-31G* AUX)
    Blend: CC-PVDZ-JKFIT
  Basis Set: 6-31G*
    Blend: 6-31G*
  @DF-RKS Final Energy:  -381.46618173264159
    Total Energy =                       -381.4661817326416440
  @DF-RKS Final Energy:  -381.46625905362401
    Total Energy =                       -381.4662590536240145
  Basis Set: (6-31G* AUX)
    Blend: CC-PVDZ-JKFIT
  Basis Set: 6-31G*
    Blend: 6-31G*
  Basis Set: (6-31G* AUX)
    Blend: CC-PVDZ-JKFIT
  @DF-RKS Final Energy:  -381.46626472470376
    Total Energy =                       -381.4662647247037057
  Basis Set: 6-31G*
    Blend: 6-31G*
  Basis Set: (6-31G* AUX)
    Blend: CC-PVDZ-JKFIT
  Charge       = 1
  Multiplicity = 1
  Basis Set: 6-31G*
    Blend: 6-31G*
  Basis Set: (6-31G* AUX)
    Blend: CC-PVDZ-JKFIT

    Orbital Energies [Eh]
    ---------------------

    Doubly Occupied:

       1A    -14.574148     2A    -14.574024     3A    -10.501162
       4A    -10.369165     5A    -10.350789     6A    -10.350401
       7A    -10.335818     8A    -10.335293     9A    -10.334998
      10A     -1.188674    11A     -1.097742    12A     -1.010155
      13A     -0.923113    14A     -0.896791    15A     -0.845176
      16A     -0.787403    17A     -0.767563    18A     -0.751823
      19A     -0.728924    20A     -0.690633    21A     -0.667557
      22A     -0.622556    23A     -0.617902    24A     -0.579030
      25A     -0.574485    26A     -0.568574    27A     -0.516480
      28A     -0.498683    29A     -0.493132    30A     -0.478030
      31A     -0.406480    32A     -0.400133

  @DF-RKS Final Energy:  -381.46626615710079

   => Energetics <=

    Nuclear Repulsion Energy =            416.4957569954132737
    One-Electron Energy =               -1328.3037730628470854
    Two-Electron Energy =                 574.7579882075094702
    DFT Exchange-Correlation Energy =     -44.4044418771765592
    Empirical Dispersion Energy =          -0.0117964200000000
    VV10 Nonlocal Energy =                  0.0000000000000000
    Total Energy =                       -381.4662661571008471
    Molecular point group: c1
  Basis Set: 6-31G*
    Blend: 6-31G*
  Basis Set: (6-31G* AUX)
    Blend: CC-PVDZ-JKFIT

  -Total Gradient:
     Atom            X                  Y                   Z
    ------   -----------------  -----------------  -----------------
       1       -0.007561907136    -0.001616985738    -0.000205749828
       2        0.004642635863    -0.000235857914     0.000120563735
       3       -0.000028121189     0.000006385596    -0.000010802723
       4        0.000003758299    -0.000007900708    -0.000007551042
       5        0.000036328082    -0.000008998850     0.000010452709
       6       -0.000076423119     0.000012142277    -0.000037278735
       7        0.004898994598     0.006328330267     0.000160345850
       8       -0.000017225243    -0.000000847811     0.000002168410
       9        0.000002879199    -0.000001165586    -0.000000082311
      10       -0.000001255467     0.000001497720     0.000002445891
      11        0.000000331399     0.000001599103    -0.000000654070
      12        0.000018428343    -0.000005957789     0.000004606471
      13       -0.001892777943    -0.004466075729    -0.000057702370
      14       -0.000012353216     0.000040867506     0.000051936252
      15       -0.000009637395    -0.000022172508    -0.000003831121
      16        0.000004991796    -0.000017831667    -0.000019427187
      17       -0.000012321720    -0.000001389858    -0.000014486613
      18       -0.000007514092     0.000001427543     0.000008122485

  **** Optimization is complete! (in 6 steps) ****
    Final optimized geometry and variables:
    Molecular point group: c1

    Geometry (in Angstrom), charge = 1, multiplicity = 1:

    C           -0.054479258501     0.011304399640    -0.175744188419
    C           -0.013200010978     1.228279095216     0.522033792502
    C            0.021891241740     1.211978236910     1.915167078307
    C            0.019646984992    -0.005402011377     2.601336327538
    C           -0.004689824763    -1.214790998503     1.900436620137
    C           -0.022332180711    -1.214796016267     0.507334727778
    C           -0.010225531027     0.019235577002    -1.653316045519
    H           -0.000519629600     2.171444892118    -0.017036865541
    H            0.057979106952     2.148213123078     2.462834823344
    H            0.042362732004    -0.012275860165     3.686710003828
    H           -0.005995004306    -2.157755612762     2.437702154783
    H           -0.039509059309    -2.151302431910    -0.042978250196
    N           -1.054822934008     0.472661610068    -2.331300523348
    N            1.047471185888    -0.488659506005    -2.269296108917
    H            1.113903194399    -0.587657353506    -3.276812572447
    H            1.846252673400    -0.779600066415    -1.719487515338
    H           -1.872271547432     0.789146397497    -1.824628342308
    H           -1.071462138737     0.559976525381    -3.341955116186

  Dipole Moment: [D]
     X:     0.0734      Y:     0.0495      Z:    -6.2903     Total:     6.2910

  Mulliken Charges: (a.u.)
   Center  Symbol    Alpha    Beta     Spin     Total
       1     C     2.98575  2.98575  0.00000  0.02851
       2     C     3.07270  3.07270  0.00000 -0.14540
       3     C     3.06194  3.06194  0.00000 -0.12388
       4     C     3.05310  3.05310  0.00000 -0.10620
       5     C     3.06321  3.06321  0.00000 -0.12641
       6     C     3.07428  3.07428  0.00000 -0.14855
       7     C     2.74219  2.74219  0.00000  0.51562
       8     H     0.41336  0.41336  0.00000  0.17328
       9     H     0.40683  0.40683  0.00000  0.18634
      10     H     0.40598  0.40598  0.00000  0.18803
      11     H     0.40680  0.40680  0.00000  0.18639
      12     H     0.41345  0.41345  0.00000  0.17311
      13     N     3.84807  3.84807  0.00000 -0.69615
      14     N     3.84900  3.84900  0.00000 -0.69800
      15     H     0.30518  0.30518  0.00000  0.38964
      16     H     0.29659  0.29659  0.00000  0.40682
      17     H     0.29621  0.29621  0.00000  0.40758
      18     H     0.30537  0.30537  0.00000  0.38927

   Total alpha = 32.00000, Total beta = 32.00000, Total charge =  1.00000

*** Psi4 exiting successfully. Buy a developer a beer!
