                               Psi4 1.2.1 release

  ==> Input File <==

--------------------------------------------------------------------------
set_num_threads(1)
set_memory('5348 MB')

set { scf_mem_safety_factor 0.7 }

set { reference rks }
set { basis cc-pVDZ }

molecule MOL {
    0 1
    noreorient
    nocom
    symmetry c1
    O    1.141000   0.017000   0.083000
    C    2.558000   0.086000  -0.005000
    C    3.192000  -0.789000   1.067000
    O    3.812720   0.023085   2.056239
    H    0.789000   0.590000  -0.620000
    H    2.874000   1.128000   0.115000
    H    2.871000  -0.243000  -1.001000
    H    3.942056  -1.452227   0.624866
    H    2.432594  -1.417624   1.545554
    H    4.199067  -0.583491   2.711744
}

set optking { frozen_dihedral = (" 1 2 3 4 ") }

energy, wfn = energy('B3LYP-D3', return_wfn=True)

import os
os.chdir(os.environ['HTMD_PSI4_WORKDIR'])

oeprop(wfn, 'DIPOLE', 'QUADRUPOLE', 'MULLIKEN_CHARGES')

with open('psi4out.xyz', 'w') as f:
    f.write('10 ' )
    f.write('%.12f\n' % energy)
    f.write(MOL.save_string_xyz())
--------------------------------------------------------------------------

    Molecular point group: c1

    Geometry (in Angstrom), charge = 0, multiplicity = 1:

       Center              X                  Y                   Z               Mass
    ------------   -----------------  -----------------  -----------------  -----------------
         O            1.141000000000     0.017000000000     0.083000000000    15.994914619560
         C            2.558000000000     0.086000000000    -0.005000000000    12.000000000000
         C            3.192000000000    -0.789000000000     1.067000000000    12.000000000000
         O            3.812720000000     0.023085000000     2.056239000000    15.994914619560
         H            0.789000000000     0.590000000000    -0.620000000000     1.007825032070
         H            2.874000000000     1.128000000000     0.115000000000     1.007825032070
         H            2.871000000000    -0.243000000000    -1.001000000000     1.007825032070
         H            3.942056000000    -1.452227000000     0.624866000000     1.007825032070
         H            2.432594000000    -1.417624000000     1.545554000000     1.007825032070
         H            4.199067000000    -0.583491000000     2.711744000000     1.007825032070

  Charge       = 0
  Multiplicity = 1
  Basis Set: CC-PVDZ
    Blend: CC-PVDZ
  Basis Set: (CC-PVDZ AUX)
    Blend: CC-PVDZ-JKFIT

    Orbital Energies [Eh]
    ---------------------

    Doubly Occupied:

       1A    -19.127648     2A    -19.127613     3A    -10.225534
       4A    -10.225348     5A     -1.016990     6A     -1.004094
       7A     -0.732901     8A     -0.603156     9A     -0.518573
      10A     -0.507923    11A     -0.432837    12A     -0.412138
      13A     -0.410219    14A     -0.345696    15A     -0.319717
      16A     -0.266787    17A     -0.254887

  @DF-RKS Final Energy:  -230.25363385664073

   => Energetics <=

    Nuclear Repulsion Energy =            130.3230115339496820
    One-Electron Energy =                -572.4551734241417762
    Two-Electron Energy =                 236.4240313371907973
    DFT Exchange-Correlation Energy =     -24.5412510236394432
    Empirical Dispersion Energy =          -0.0042522800000000
    VV10 Nonlocal Energy =                  0.0000000000000000
    Total Energy =                       -230.2536338566407323

  Dipole Moment: [D]
     X:     0.6854      Y:    -0.6430      Z:    -0.9322     Total:     1.3237

  Mulliken Charges: (a.u.)
   Center  Symbol    Alpha    Beta     Spin     Total
       1     O     4.13958  4.13958  0.00000 -0.27917
       2     C     2.93222  2.93222  0.00000  0.13556
       3     C     2.93241  2.93241  0.00000  0.13519
       4     O     4.13983  4.13983  0.00000 -0.27965
       5     H     0.43080  0.43080  0.00000  0.13840
       6     H     0.49400  0.49400  0.00000  0.01200
       7     H     0.50333  0.50333  0.00000 -0.00666
       8     H     0.50319  0.50319  0.00000 -0.00637
       9     H     0.49390  0.49390  0.00000  0.01220
      10     H     0.43075  0.43075  0.00000  0.13850

   Total alpha = 17.00000, Total beta = 17.00000, Total charge =  0.00000

*** Psi4 exiting successfully. Buy a developer a beer!
