                               Psi4 1.2.1 release

  ==> Input File <==

--------------------------------------------------------------------------
set_num_threads(4)
set_memory('3000 MB')

set { scf_mem_safety_factor 0.7 }

set { reference rks }
set { basis 6-31G* }

molecule MOL {
    1 1
    noreorient
    nocom
    symmetry c1
    C   -0.000000  -0.000000  -0.177864
    C    0.036678   1.219374   0.524165
    C    0.031765   1.213120   1.915444
    C    0.000000   0.000000   2.610107
    C   -0.031765  -1.213120   1.915444
    C   -0.036678  -1.219375   0.524165
    C   -0.000000   0.000000  -1.644734
    H    0.018170   2.164705  -0.010854
    H    0.042402   2.152895   2.457886
    H    0.000000   0.000000   3.695756
    H   -0.042402  -2.152895   2.457886
    H   -0.018170  -2.164705  -0.010853
    N    0.860283  -0.767101  -2.308461
    N   -0.860283   0.767101  -2.308460
    H   -0.963025   0.734216  -3.315997
    H   -1.398215   1.466204  -1.813316
    H    1.398215  -1.466204  -1.813317
    H    0.963026  -0.734216  -3.315997
}

set optking { frozen_dihedral = (" 2 1 7 13 ") }

set optking { dynamic_level = 1
 geom_maxiter = 250
 print_trajectory_xyz_file = True }

energy, wfn = optimize('B3LYP-D3', return_wfn=True)

import os
os.chdir(os.environ['HTMD_PSI4_WORKDIR'])

oeprop(wfn, 'DIPOLE', 'QUADRUPOLE', 'MULLIKEN_CHARGES')

with open('psi4out.xyz', 'w') as f:
    f.write('18 ' )
    f.write('%.12f\n' % energy)
    f.write(MOL.save_string_xyz())
--------------------------------------------------------------------------

    Molecular point group: c1
  Charge       = 1
  Multiplicity = 1
  Basis Set: 6-31G*
    Blend: 6-31G*
  Basis Set: (6-31G* AUX)
    Blend: CC-PVDZ-JKFIT
  @DF-RKS Final Energy:  -381.46496449621020
    Total Energy =                       -381.4649644962102002
    Molecular point group: c1
  Basis Set: 6-31G*
    Blend: 6-31G*
  Basis Set: (6-31G* AUX)
    Blend: CC-PVDZ-JKFIT
  Basis Set: 6-31G*
    Blend: 6-31G*
  Basis Set: (6-31G* AUX)
    Blend: CC-PVDZ-JKFIT
  @DF-RKS Final Energy:  -381.46837392222511
    Total Energy =                       -381.4683739222251120
  Basis Set: 6-31G*
    Blend: 6-31G*
  Basis Set: (6-31G* AUX)
    Blend: CC-PVDZ-JKFIT
  Basis Set: 6-31G*
    Blend: 6-31G*
  @DF-RKS Final Energy:  -381.46948707943795
    Total Energy =                       -381.4694870794378971
  @DF-RKS Final Energy:  -381.46966630739126
    Total Energy =                       -381.4696663073913214
  @DF-RKS Final Energy:  -381.46967416259184
    Total Energy =                       -381.4696741625919003
  Basis Set: (6-31G* AUX)
    Blend: CC-PVDZ-JKFIT
  Basis Set: 6-31G*
    Blend: 6-31G*
  Basis Set: (6-31G* AUX)
    Blend: CC-PVDZ-JKFIT
  @DF-RKS Final Energy:  -381.46967564554234
    Total Energy =                       -381.4696756455423952
  Basis Set: 6-31G*
    Blend: 6-31G*
  Basis Set: (6-31G* AUX)
    Blend: CC-PVDZ-JKFIT
  Charge       = 1
  Multiplicity = 1
  Basis Set: 6-31G*
    Blend: 6-31G*
  Basis Set: (6-31G* AUX)
    Blend: CC-PVDZ-JKFIT

    Orbital Energies [Eh]
    ---------------------

    Doubly Occupied:

       1A    -14.570105     2A    -14.569965     3A    -10.498154
       4A    -10.371627     5A    -10.354357     6A    -10.353924
       7A    -10.340512     8A    -10.338744     9A    -10.338651
      10A     -1.185284    11A     -1.093964    12A     -1.012869
      13A     -0.925399    14A     -0.900344    15A     -0.845003
      16A     -0.786180    17A     -0.771465    18A     -0.745434
      19A     -0.731143    20A     -0.689107    21A     -0.668691
      22A     -0.622671    23A     -0.619699    24A     -0.583311
      25A     -0.577401    26A     -0.571320    27A     -0.517972
      28A     -0.503104    29A     -0.496404    30A     -0.474404
      31A     -0.410035    32A     -0.403898

  @DF-RKS Final Energy:  -381.46967592100208

   => Energetics <=

    Nuclear Repulsion Energy =            416.8770722734612946
    One-Electron Energy =               -1329.0035286666345655
    Two-Electron Energy =                 575.0742935901091641
    DFT Exchange-Correlation Energy =     -44.4055282779379397
    Empirical Dispersion Energy =          -0.0119848400000000
    VV10 Nonlocal Energy =                  0.0000000000000000
    Total Energy =                       -381.4696759210020787
    Molecular point group: c1
  Basis Set: 6-31G*
    Blend: 6-31G*
  Basis Set: (6-31G* AUX)
    Blend: CC-PVDZ-JKFIT

  -Total Gradient:
     Atom            X                  Y                   Z
    ------   -----------------  -----------------  -----------------
       1       -0.003368955777     0.001213135309    -0.000111457769
       2        0.002923236132    -0.000122104196     0.000060178104
       3        0.000022077343     0.000004290741    -0.000006992040
       4        0.000007373479     0.000000402890    -0.000004998911
       5       -0.000021113365    -0.000006421584    -0.000005922206
       6        0.000004704883    -0.000009907767     0.000020475422
       7       -0.001656216468    -0.003352037595     0.000033217236
       8       -0.000007717398    -0.000005786299    -0.000002437449
       9       -0.000004525197    -0.000001786056     0.000000850091
      10       -0.000004257454     0.000000409242    -0.000000653762
      11        0.000003415016     0.000001269904     0.000002532576
      12       -0.000004824225     0.000004576730    -0.000000343910
      13        0.002107600939     0.002298726039     0.000031290630
      14        0.000000750189    -0.000035260264     0.000018784293
      15        0.000008429805     0.000011998157    -0.000022369400
      16       -0.000006848801     0.000009547991    -0.000009734995
      17        0.000006482419    -0.000005939828    -0.000003476129
      18       -0.000002320952    -0.000008728299    -0.000019354439

  **** Optimization is complete! (in 7 steps) ****
    Final optimized geometry and variables:
    Molecular point group: c1

    Geometry (in Angstrom), charge = 1, multiplicity = 1:

    C           -0.045912620583    -0.007120102116    -0.177938575549
    C           -0.002062371631     1.215045013952     0.515797372677
    C            0.031691190383     1.210109247681     1.907632046491
    C            0.017139207964    -0.001924782037     2.604259853562
    C           -0.020069017947    -1.217150785718     1.913296898621
    C           -0.037545158113    -1.226880702810     0.521527999765
    C           -0.021266247246    -0.007022507990    -1.647423073014
    H            0.037840131446     2.154538633058    -0.028188334668
    H            0.078730262193     2.150045439174     2.447972868975
    H            0.038413980705     0.000195354165     3.689702438658
    H           -0.038370599557    -2.155124814313     2.458746036321
    H           -0.087513802628    -2.169019179555    -0.017428153270
    N            0.839820756547    -0.788759258513    -2.288741162027
    N           -0.828742637060     0.808056290330    -2.316754878459
    H           -0.786385878165     0.928615659312    -3.322429824878
    H           -1.554463787095     1.309156605945    -1.820351104412
    H            1.529895549062    -1.308454962579    -1.761678504291
    H            0.848802041724    -0.894306147986    -3.297001904502

  Dipole Moment: [D]
     X:     0.0323      Y:     0.0039      Z:    -5.9104     Total:     5.9105

  Mulliken Charges: (a.u.)
   Center  Symbol    Alpha    Beta     Spin     Total
       1     C     2.96834  2.96834  0.00000  0.06332
       2     C     3.07726  3.07726  0.00000 -0.15452
       3     C     3.06224  3.06224  0.00000 -0.12448
       4     C     3.05197  3.05197  0.00000 -0.10395
       5     C     3.06297  3.06297  0.00000 -0.12594
       6     C     3.08029  3.08029  0.00000 -0.16058
       7     C     2.73024  2.73024  0.00000  0.53953
       8     H     0.41359  0.41359  0.00000  0.17282
       9     H     0.40585  0.40585  0.00000  0.18829
      10     H     0.40460  0.40460  0.00000  0.19079
      11     H     0.40587  0.40587  0.00000  0.18825
      12     H     0.41358  0.41358  0.00000  0.17285
      13     N     3.85689  3.85689  0.00000 -0.71379
      14     N     3.85824  3.85824  0.00000 -0.71649
      15     H     0.30557  0.30557  0.00000  0.38886
      16     H     0.29848  0.29848  0.00000  0.40304
      17     H     0.29844  0.29844  0.00000  0.40311
      18     H     0.30556  0.30556  0.00000  0.38888

   Total alpha = 32.00000, Total beta = 32.00000, Total charge =  1.00000

*** Psi4 exiting successfully. Buy a developer a beer!
