                               Psi4 1.2.1 release

  ==> Input File <==

--------------------------------------------------------------------------
set_num_threads(1)
set_memory('5348 MB')

set { scf_mem_safety_factor 0.7 }

set { reference rks }
set { basis cc-pVDZ }

molecule MOL {
    0 1
    noreorient
    nocom
    symmetry c1
    O    1.050400   0.042900  -0.048100
    C    2.474100   0.047400  -0.029000
    C    3.002600  -1.068900  -0.932000
    N    4.173747  -0.648706  -1.699692
    H    0.760400   0.728400   0.578000
    H    2.809900  -0.097900   1.003200
    H    2.817400   1.026800  -0.378600
    H    2.211680  -1.399533  -1.615276
    H    3.261093  -1.939193  -0.318137
    H    3.902078   0.081556  -2.357260
    H    4.491182  -1.432889  -2.269378
}

set optking { frozen_dihedral = (" 1 2 3 4 ") }

energy, wfn = energy('B3LYP-D3', return_wfn=True)

import os
os.chdir(os.environ['HTMD_PSI4_WORKDIR'])

oeprop(wfn, 'DIPOLE', 'QUADRUPOLE', 'MULLIKEN_CHARGES')

with open('psi4out.xyz', 'w') as f:
    f.write('11 ' )
    f.write('%.12f\n' % energy)
    f.write(MOL.save_string_xyz())
--------------------------------------------------------------------------

    Molecular point group: c1

    Geometry (in Angstrom), charge = 0, multiplicity = 1:

       Center              X                  Y                   Z               Mass
    ------------   -----------------  -----------------  -----------------  -----------------
         O            1.050400000000     0.042900000000    -0.048100000000    15.994914619560
         C            2.474100000000     0.047400000000    -0.029000000000    12.000000000000
         C            3.002600000000    -1.068900000000    -0.932000000000    12.000000000000
         N            4.173747000000    -0.648706000000    -1.699692000000    14.003074004780
         H            0.760400000000     0.728400000000     0.578000000000     1.007825032070
         H            2.809900000000    -0.097900000000     1.003200000000     1.007825032070
         H            2.817400000000     1.026800000000    -0.378600000000     1.007825032070
         H            2.211680000000    -1.399533000000    -1.615276000000     1.007825032070
         H            3.261093000000    -1.939193000000    -0.318137000000     1.007825032070
         H            3.902078000000     0.081556000000    -2.357260000000     1.007825032070
         H            4.491182000000    -1.432889000000    -2.269378000000     1.007825032070

  Charge       = 0
  Multiplicity = 1
  Basis Set: CC-PVDZ
    Blend: CC-PVDZ
  Basis Set: (CC-PVDZ AUX)
    Blend: CC-PVDZ-JKFIT

    Orbital Energies [Eh]
    ---------------------

    Doubly Occupied:

       1A    -19.126336     2A    -14.302892     3A    -10.223194
       4A    -10.200807     5A     -1.009090     6A     -0.875255
       7A     -0.712296     8A     -0.596457     9A     -0.508122
      10A     -0.487918    11A     -0.442580    12A     -0.420074
      13A     -0.388622    14A     -0.362893    15A     -0.324034
      16A     -0.259794    17A     -0.228771

  @DF-RKS Final Energy:  -210.38765651238651

   => Energetics <=

    Nuclear Repulsion Energy =            130.7594815042673417
    One-Electron Energy =                -544.4719338461961797
    Two-Electron Energy =                 226.8192084605672960
    DFT Exchange-Correlation Energy =     -23.4896592810249878
    Empirical Dispersion Energy =          -0.0047533500000000
    VV10 Nonlocal Energy =                  0.0000000000000000
    Total Energy =                       -210.3876565123865134

  Dipole Moment: [D]
     X:    -0.0129      Y:     0.5149      Z:    -0.0444     Total:     0.5169

  Mulliken Charges: (a.u.)
   Center  Symbol    Alpha    Beta     Spin     Total
       1     O     4.14087  4.14087  0.00000 -0.28174
       2     C     2.92775  2.92775  0.00000  0.14450
       3     C     2.98276  2.98276  0.00000  0.03448
       4     N     3.59571  3.59571  0.00000 -0.19141
       5     H     0.43097  0.43097  0.00000  0.13807
       6     H     0.49915  0.49915  0.00000  0.00171
       7     H     0.50306  0.50306  0.00000 -0.00613
       8     H     0.49796  0.49796  0.00000  0.00408
       9     H     0.49221  0.49221  0.00000  0.01559
      10     H     0.46469  0.46469  0.00000  0.07062
      11     H     0.46488  0.46488  0.00000  0.07025

   Total alpha = 17.00000, Total beta = 17.00000, Total charge =  0.00000

*** Psi4 exiting successfully. Buy a developer a beer!
