                               Psi4 1.2.1 release

  ==> Input File <==

--------------------------------------------------------------------------
set_num_threads(4)
set_memory('3000 MB')

set { scf_mem_safety_factor 0.7 }

set { reference rks }
set { basis 6-31G* }

molecule MOL {
    1 1
    noreorient
    nocom
    symmetry c1
    C   -0.000000  -0.000000  -0.177864
    C    0.036678   1.219374   0.524165
    C    0.031765   1.213120   1.915444
    C    0.000000   0.000000   2.610107
    C   -0.031765  -1.213120   1.915444
    C   -0.036678  -1.219375   0.524165
    C   -0.000000   0.000000  -1.644734
    H    0.018170   2.164705  -0.010854
    H    0.042402   2.152895   2.457886
    H    0.000000   0.000000   3.695756
    H   -0.042402  -2.152895   2.457886
    H   -0.018170  -2.164705  -0.010853
    N   -0.714007   0.904833  -2.308460
    N    0.714007  -0.904833  -2.308461
    H    0.820900  -0.890289  -3.315997
    H    1.122369  -1.686726  -1.813317
    H   -1.122369   1.686726  -1.813316
    H   -0.820900   0.890290  -3.315997
}

set optking { frozen_dihedral = (" 2 1 7 13 ") }

set optking { dynamic_level = 1
 geom_maxiter = 250
 print_trajectory_xyz_file = True }

energy, wfn = optimize('B3LYP-D3', return_wfn=True)

import os
os.chdir(os.environ['HTMD_PSI4_WORKDIR'])

oeprop(wfn, 'DIPOLE', 'QUADRUPOLE', 'MULLIKEN_CHARGES')

with open('psi4out.xyz', 'w') as f:
    f.write('18 ' )
    f.write('%.12f\n' % energy)
    f.write(MOL.save_string_xyz())
--------------------------------------------------------------------------

    Molecular point group: c1
  Charge       = 1
  Multiplicity = 1
  Basis Set: 6-31G*
    Blend: 6-31G*
  Basis Set: (6-31G* AUX)
    Blend: CC-PVDZ-JKFIT
  @DF-RKS Final Energy:  -381.46525559392768
    Total Energy =                       -381.4652555939276795
    Molecular point group: c1
  Basis Set: 6-31G*
    Blend: 6-31G*
  Basis Set: (6-31G* AUX)
    Blend: CC-PVDZ-JKFIT
  Basis Set: 6-31G*
    Blend: 6-31G*
  Basis Set: (6-31G* AUX)
    Blend: CC-PVDZ-JKFIT
  @DF-RKS Final Energy:  -381.46875962209998
    Total Energy =                       -381.4687596220999808
  Basis Set: 6-31G*
    Blend: 6-31G*
  Basis Set: (6-31G* AUX)
    Blend: CC-PVDZ-JKFIT
  Basis Set: 6-31G*
    Blend: 6-31G*
  @DF-RKS Final Energy:  -381.47014806308124
    Total Energy =                       -381.4701480630812398
  @DF-RKS Final Energy:  -381.47042601158557
    Total Energy =                       -381.4704260115856300
  @DF-RKS Final Energy:  -381.47043967139717
    Total Energy =                       -381.4704396713971732
  Basis Set: (6-31G* AUX)
    Blend: CC-PVDZ-JKFIT
  Basis Set: 6-31G*
    Blend: 6-31G*
  Basis Set: (6-31G* AUX)
    Blend: CC-PVDZ-JKFIT
  @DF-RKS Final Energy:  -381.47044799630044
    Total Energy =                       -381.4704479963004360
  Basis Set: 6-31G*
    Blend: 6-31G*
  Basis Set: (6-31G* AUX)
    Blend: CC-PVDZ-JKFIT
  Charge       = 1
  Multiplicity = 1
  Basis Set: 6-31G*
    Blend: 6-31G*
  Basis Set: (6-31G* AUX)
    Blend: CC-PVDZ-JKFIT

    Orbital Energies [Eh]
    ---------------------

    Doubly Occupied:

       1A    -14.568515     2A    -14.568504     3A    -10.497344
       4A    -10.372753     5A    -10.355667     6A    -10.355559
       7A    -10.342367     8A    -10.340005     9A    -10.339942
      10A     -1.184149    11A     -1.092447    12A     -1.013905
      13A     -0.926291    14A     -0.901726    15A     -0.845263
      16A     -0.785810    17A     -0.772918    18A     -0.742625
      19A     -0.732397    20A     -0.688910    21A     -0.668985
      22A     -0.624766    23A     -0.617932    24A     -0.585886
      25A     -0.578604    26A     -0.572437    27A     -0.518266
      28A     -0.504874    29A     -0.497661    30A     -0.473215
      31A     -0.411290    32A     -0.405264

  @DF-RKS Final Energy:  -381.47044849674609

   => Energetics <=

    Nuclear Repulsion Energy =            416.9194543485170357
    One-Electron Energy =               -1329.0593373966503350
    Two-Electron Energy =                 575.0873045896690883
    DFT Exchange-Correlation Energy =     -44.4059098482818797
    Empirical Dispersion Energy =          -0.0119601900000000
    VV10 Nonlocal Energy =                  0.0000000000000000
    Total Energy =                       -381.4704484967460871
    Molecular point group: c1
  Basis Set: 6-31G*
    Blend: 6-31G*
  Basis Set: (6-31G* AUX)
    Blend: CC-PVDZ-JKFIT

  -Total Gradient:
     Atom            X                  Y                   Z
    ------   -----------------  -----------------  -----------------
       1       -0.001508371765    -0.000198170304    -0.000036510560
       2        0.000812665614    -0.000018178288     0.000007456815
       3        0.000014344451    -0.000003772865    -0.000002142116
       4        0.000005408800    -0.000003428651    -0.000009140554
       5       -0.000008869692     0.000003683409     0.000002564715
       6       -0.000021076411    -0.000007116084     0.000001771565
       7        0.001417603515     0.000758773966     0.000045741484
       8       -0.000007626203    -0.000005745624    -0.000006723656
       9        0.000000401373    -0.000000468236    -0.000000003142
      10       -0.000003531412     0.000000163773     0.000000044375
      11        0.000002665527     0.000000099634     0.000000009162
      12        0.000002411740     0.000003791759    -0.000003705809
      13       -0.000719699429    -0.000545142939    -0.000000973452
      14        0.000047816935     0.000018151295     0.000025147445
      15       -0.000021674021    -0.000015666245    -0.000008005780
      16       -0.000037101830     0.000010612226    -0.000025387146
      17        0.000013068393    -0.000004510930    -0.000015075098
      18        0.000012441626     0.000005859483     0.000004590555

  **** Optimization is complete! (in 7 steps) ****
    Final optimized geometry and variables:
    Molecular point group: c1

    Geometry (in Angstrom), charge = 1, multiplicity = 1:

    C           -0.008252426533     0.000553685599    -0.177932856514
    C            0.035229237420     1.219878070397     0.523026521955
    C            0.044067362341     1.212524130858     1.914517668040
    C            0.001733694401    -0.000652589490     2.608408513055
    C           -0.043164791080    -1.213310118774     1.913548317118
    C           -0.040747177834    -1.219641111471     0.522103272746
    C            0.000654899684     0.002130594475    -1.645286453847
    H            0.107184399251     2.161604482304    -0.013893326701
    H            0.094011597566     2.150738957693     2.457502819040
    H            0.004565139030    -0.001193444949     3.694062017100
    H           -0.088298925566    -2.152083467835     2.455994633680
    H           -0.112926568747    -2.161120611488    -0.015197192821
    N           -0.701722031477     0.914854368687    -2.309634706762
    N            0.701267725903    -0.915974495669    -2.304030854087
    H            0.665446294331    -1.018886191570    -3.311596145661
    H            1.348912999722    -1.509540595448    -1.802357945979
    H           -1.350144723536     1.510645367962    -1.811552265949
    H           -0.657816704875     1.019472968720    -3.316682014414

  Dipole Moment: [D]
     X:     0.0195      Y:     0.0101      Z:    -5.7749     Total:     5.7749

  Mulliken Charges: (a.u.)
   Center  Symbol    Alpha    Beta     Spin     Total
       1     C     2.96008  2.96008  0.00000  0.07985
       2     C     3.08110  3.08110  0.00000 -0.16219
       3     C     3.06242  3.06242  0.00000 -0.12485
       4     C     3.05159  3.05159  0.00000 -0.10317
       5     C     3.06265  3.06265  0.00000 -0.12531
       6     C     3.08137  3.08137  0.00000 -0.16275
       7     C     2.72412  2.72412  0.00000  0.55177
       8     H     0.41402  0.41402  0.00000  0.17196
       9     H     0.40554  0.40554  0.00000  0.18892
      10     H     0.40406  0.40406  0.00000  0.19187
      11     H     0.40554  0.40554  0.00000  0.18892
      12     H     0.41394  0.41394  0.00000  0.17212
      13     N     3.86156  3.86156  0.00000 -0.72313
      14     N     3.86199  3.86199  0.00000 -0.72399
      15     H     0.30565  0.30565  0.00000  0.38871
      16     H     0.29941  0.29941  0.00000  0.40118
      17     H     0.29928  0.29928  0.00000  0.40143
      18     H     0.30567  0.30567  0.00000  0.38865

   Total alpha = 32.00000, Total beta = 32.00000, Total charge =  1.00000

*** Psi4 exiting successfully. Buy a developer a beer!
