                               Psi4 1.2.1 release

  ==> Input File <==

--------------------------------------------------------------------------
set_num_threads(1)
set_memory('5348 MB')

set { scf_mem_safety_factor 0.7 }

set { reference rks }
set { basis cc-pVDZ }

molecule MOL {
    0 1
    noreorient
    nocom
    symmetry c1
    O    1.141000   0.017000   0.083000
    C    2.558000   0.086000  -0.005000
    C    3.192000  -0.789000   1.067000
    O    4.000995  -1.791500   0.463768
    H    0.789000   0.590000  -0.620000
    H    2.874000   1.128000   0.115000
    H    2.871000  -0.243000  -1.001000
    H    2.418940  -1.269469   1.674837
    H    3.813185  -0.183365   1.736488
    H    4.378694  -2.318158   1.189620
}

set optking { frozen_dihedral = (" 1 2 3 4 ") }

energy, wfn = energy('B3LYP-D3', return_wfn=True)

import os
os.chdir(os.environ['HTMD_PSI4_WORKDIR'])

oeprop(wfn, 'DIPOLE', 'QUADRUPOLE', 'MULLIKEN_CHARGES')

with open('psi4out.xyz', 'w') as f:
    f.write('10 ' )
    f.write('%.12f\n' % energy)
    f.write(MOL.save_string_xyz())
--------------------------------------------------------------------------

    Molecular point group: c1

    Geometry (in Angstrom), charge = 0, multiplicity = 1:

       Center              X                  Y                   Z               Mass
    ------------   -----------------  -----------------  -----------------  -----------------
         O            1.141000000000     0.017000000000     0.083000000000    15.994914619560
         C            2.558000000000     0.086000000000    -0.005000000000    12.000000000000
         C            3.192000000000    -0.789000000000     1.067000000000    12.000000000000
         O            4.000995000000    -1.791500000000     0.463768000000    15.994914619560
         H            0.789000000000     0.590000000000    -0.620000000000     1.007825032070
         H            2.874000000000     1.128000000000     0.115000000000     1.007825032070
         H            2.871000000000    -0.243000000000    -1.001000000000     1.007825032070
         H            2.418940000000    -1.269469000000     1.674837000000     1.007825032070
         H            3.813185000000    -0.183365000000     1.736488000000     1.007825032070
         H            4.378694000000    -2.318158000000     1.189620000000     1.007825032070

  Charge       = 0
  Multiplicity = 1
  Basis Set: CC-PVDZ
    Blend: CC-PVDZ
  Basis Set: (CC-PVDZ AUX)
    Blend: CC-PVDZ-JKFIT

    Orbital Energies [Eh]
    ---------------------

    Doubly Occupied:

       1A    -19.128456     2A    -19.128413     3A    -10.225319
       4A    -10.225130     5A     -1.017306     6A     -1.005072
       7A     -0.732721     8A     -0.603210     9A     -0.520811
      10A     -0.504676    11A     -0.438429    12A     -0.410775
      13A     -0.407511    14A     -0.346513    15A     -0.320093
      16A     -0.266205    17A     -0.255958

  @DF-RKS Final Energy:  -230.25322015100764

   => Energetics <=

    Nuclear Repulsion Energy =            130.1033333681714055
    One-Electron Energy =                -572.0055275791004306
    Two-Electron Energy =                 236.1949977054832175
    DFT Exchange-Correlation Energy =     -24.5417818455618324
    Empirical Dispersion Energy =          -0.0042418000000000
    VV10 Nonlocal Energy =                  0.0000000000000000
    Total Energy =                       -230.2532201510076106

  Dipole Moment: [D]
     X:     0.5199      Y:     0.9224      Z:     0.4432     Total:     1.1478

  Mulliken Charges: (a.u.)
   Center  Symbol    Alpha    Beta     Spin     Total
       1     O     4.14014  4.14014  0.00000 -0.28029
       2     C     2.93297  2.93297  0.00000  0.13406
       3     C     2.93307  2.93307  0.00000  0.13386
       4     O     4.14036  4.14036  0.00000 -0.28072
       5     H     0.43042  0.43042  0.00000  0.13916
       6     H     0.50238  0.50238  0.00000 -0.00475
       7     H     0.49404  0.49404  0.00000  0.01191
       8     H     0.49396  0.49396  0.00000  0.01208
       9     H     0.50228  0.50228  0.00000 -0.00455
      10     H     0.43037  0.43037  0.00000  0.13926

   Total alpha = 17.00000, Total beta = 17.00000, Total charge = -0.00000

*** Psi4 exiting successfully. Buy a developer a beer!
