                               Psi4 1.2.1 release

  ==> Input File <==

--------------------------------------------------------------------------
set_num_threads(4)
set_memory('3000 MB')

set { scf_mem_safety_factor 0.7 }

set { reference rks }
set { basis 6-31G* }

molecule MOL {
    1 1
    noreorient
    nocom
    symmetry c1
    C   -0.000000  -0.000000  -0.177864
    C    0.036678   1.219374   0.524165
    C    0.031765   1.213120   1.915444
    C    0.000000   0.000000   2.610107
    C   -0.031765  -1.213120   1.915444
    C   -0.036678  -1.219375   0.524165
    C   -0.000000   0.000000  -1.644734
    H    0.018170   2.164705  -0.010854
    H    0.042402   2.152895   2.457886
    H    0.000000   0.000000   3.695756
    H   -0.042402  -2.152895   2.457886
    H   -0.018170  -2.164705  -0.010853
    N   -0.712590  -0.905950  -2.308461
    N    0.712590   0.905950  -2.308460
    H    0.673432   1.006470  -3.315997
    H    1.377190   1.485970  -1.813316
    H   -0.712057  -0.905272  -3.320035
    H   -1.216706  -1.654670  -1.847970
}

set optking { frozen_dihedral = (" 1 7 13 17 ") }

set optking { dynamic_level = 1
 geom_maxiter = 250
 print_trajectory_xyz_file = True }

energy, wfn = optimize('B3LYP-D3', return_wfn=True)

import os
os.chdir(os.environ['HTMD_PSI4_WORKDIR'])

oeprop(wfn, 'DIPOLE', 'QUADRUPOLE', 'MULLIKEN_CHARGES')

with open('psi4out.xyz', 'w') as f:
    f.write('18 ' )
    f.write('%.12f\n' % energy)
    f.write(MOL.save_string_xyz())
--------------------------------------------------------------------------

    Molecular point group: c1
  Charge       = 1
  Multiplicity = 1
  Basis Set: 6-31G*
    Blend: 6-31G*
  Basis Set: (6-31G* AUX)
    Blend: CC-PVDZ-JKFIT
  @DF-RKS Final Energy:  -381.46874641589079
    Total Energy =                       -381.4687464158907915
    Molecular point group: c1
  Basis Set: 6-31G*
    Blend: 6-31G*
  Basis Set: (6-31G* AUX)
    Blend: CC-PVDZ-JKFIT
  Basis Set: 6-31G*
    Blend: 6-31G*
  Basis Set: (6-31G* AUX)
    Blend: CC-PVDZ-JKFIT
  @DF-RKS Final Energy:  -381.46984410906435
    Total Energy =                       -381.4698441090642973
  Basis Set: 6-31G*
    Blend: 6-31G*
  Basis Set: (6-31G* AUX)
    Blend: CC-PVDZ-JKFIT
  Basis Set: 6-31G*
    Blend: 6-31G*
  @DF-RKS Final Energy:  -381.47030249444299
    Total Energy =                       -381.4703024944429899
  @DF-RKS Final Energy:  -381.47035984167547
    Total Energy =                       -381.4703598416754176
  Basis Set: (6-31G* AUX)
    Blend: CC-PVDZ-JKFIT
  Basis Set: 6-31G*
    Blend: 6-31G*
  Basis Set: (6-31G* AUX)
    Blend: CC-PVDZ-JKFIT
  @DF-RKS Final Energy:  -381.47036838979551
    Total Energy =                       -381.4703683897955102
  Basis Set: 6-31G*
    Blend: 6-31G*
  Basis Set: (6-31G* AUX)
    Blend: CC-PVDZ-JKFIT
  Charge       = 1
  Multiplicity = 1
  Basis Set: 6-31G*
    Blend: 6-31G*
  Basis Set: (6-31G* AUX)
    Blend: CC-PVDZ-JKFIT

    Orbital Energies [Eh]
    ---------------------

    Doubly Occupied:

       1A    -14.568582     2A    -14.568330     3A    -10.497594
       4A    -10.373289     5A    -10.356116     6A    -10.355850
       7A    -10.342689     8A    -10.340301     9A    -10.340221
      10A     -1.184299    11A     -1.092545    12A     -1.014196
      13A     -0.926589    14A     -0.902069    15A     -0.845497
      16A     -0.785798    17A     -0.773752    18A     -0.741425
      19A     -0.732952    20A     -0.688561    21A     -0.668831
      22A     -0.625506    23A     -0.617306    24A     -0.587856
      25A     -0.578717    26A     -0.573027    27A     -0.518079
      28A     -0.505425    29A     -0.498006    30A     -0.473515
      31A     -0.411357    32A     -0.405557

  @DF-RKS Final Energy:  -381.47036991205147

   => Energetics <=

    Nuclear Repulsion Energy =            416.9296979904722775
    One-Electron Energy =               -1329.0646564169719568
    Two-Electron Energy =                 575.0823473016974958
    DFT Exchange-Correlation Energy =     -44.4058337972493362
    Empirical Dispersion Energy =          -0.0119249900000000
    VV10 Nonlocal Energy =                  0.0000000000000000
    Total Energy =                       -381.4703699120515239
    Molecular point group: c1
  Basis Set: 6-31G*
    Blend: 6-31G*
  Basis Set: (6-31G* AUX)
    Blend: CC-PVDZ-JKFIT

  -Total Gradient:
     Atom            X                  Y                   Z
    ------   -----------------  -----------------  -----------------
       1       -0.000846718357     0.000668949238     0.000147419814
       2        0.000004832788     0.000001307817    -0.000032159170
       3       -0.000014605208    -0.000000831771     0.000015223733
       4        0.000002772719    -0.000022830946    -0.000008717109
       5       -0.000006622858     0.000044854141     0.000037667165
       6        0.000046593246    -0.000040696015    -0.000048681266
       7        0.000848505573    -0.000492995304    -0.000235184573
       8       -0.000000814466    -0.000005622219    -0.000010458260
       9       -0.000003257036     0.000000904829    -0.000001604079
      10        0.000003395360    -0.000000876102    -0.000001800619
      11       -0.000003939008    -0.000005057712    -0.000003108718
      12       -0.000032248440     0.000013245834    -0.000018551846
      13        0.001343574308    -0.001010952542     0.000041448208
      14       -0.000014923672    -0.000099699693     0.000048122880
      15       -0.000026757106     0.000004445739    -0.000010194994
      16       -0.000006693255     0.000003890613     0.000034144451
      17       -0.001242232131     0.000997126225    -0.000024780817
      18       -0.000053250262    -0.000056448226     0.000048464978

  **** Optimization is complete! (in 6 steps) ****
    Final optimized geometry and variables:
    Molecular point group: c1

    Geometry (in Angstrom), charge = 1, multiplicity = 1:

    C            0.015239084514    -0.008417632198    -0.179893294114
    C            0.032346603597     1.212349444118     0.520010332741
    C            0.016960423106     1.207935446363     1.911383667610
    C           -0.004636422525    -0.004263148555     2.607807733892
    C           -0.016161808169    -1.218671075630     1.914840036348
    C           -0.010850290252    -1.227138915381     0.523522366526
    C            0.021460995513    -0.009985679212    -1.647494460585
    H            0.006103984476     2.156774161046    -0.016247294498
    H            0.011809130346     2.148681241974     2.452243954176
    H           -0.012508798534    -0.002572470982     3.693421579451
    H           -0.018907696681    -2.157746584815     2.458619770198
    H            0.022711060407    -2.172848788558    -0.010138979572
    N           -0.678028168338    -0.926692006363    -2.311220376866
    N            0.720135042923     0.907854853547    -2.308711987113
    H            0.691083534812     1.001653465276    -3.317284894940
    H            1.374313675688     1.497556653011    -1.810997146437
    H           -0.704886248235    -0.968406214053    -3.323463427340
    H           -1.344325102648    -1.503565749588    -1.814088579477

  Dipole Moment: [D]
     X:    -0.0404      Y:     0.0705      Z:    -5.7688     Total:     5.7693

  Mulliken Charges: (a.u.)
   Center  Symbol    Alpha    Beta     Spin     Total
       1     C     2.95748  2.95748  0.00000  0.08505
       2     C     3.08226  3.08226  0.00000 -0.16452
       3     C     3.06251  3.06251  0.00000 -0.12502
       4     C     3.05154  3.05154  0.00000 -0.10309
       5     C     3.06249  3.06249  0.00000 -0.12498
       6     C     3.08247  3.08247  0.00000 -0.16494
       7     C     2.72227  2.72227  0.00000  0.55546
       8     H     0.41440  0.41440  0.00000  0.17121
       9     H     0.40550  0.40550  0.00000  0.18900
      10     H     0.40396  0.40396  0.00000  0.19209
      11     H     0.40545  0.40545  0.00000  0.18910
      12     H     0.41365  0.41365  0.00000  0.17271
      13     N     3.86224  3.86224  0.00000 -0.72449
      14     N     3.86299  3.86299  0.00000 -0.72598
      15     H     0.30569  0.30569  0.00000  0.38863
      16     H     0.29945  0.29945  0.00000  0.40109
      17     H     0.30589  0.30589  0.00000  0.38822
      18     H     0.29977  0.29977  0.00000  0.40047

   Total alpha = 32.00000, Total beta = 32.00000, Total charge =  1.00000

*** Psi4 exiting successfully. Buy a developer a beer!
