                               Psi4 1.2.1 release

  ==> Input File <==

--------------------------------------------------------------------------
set_num_threads(4)
set_memory('3000 MB')

set { scf_mem_safety_factor 0.7 }

set { reference rks }
set { basis 6-31G* }

molecule MOL {
    1 1
    noreorient
    nocom
    symmetry c1
    C   -0.000000  -0.000000  -0.177864
    C    0.036678   1.219374   0.524165
    C    0.031765   1.213120   1.915444
    C    0.000000   0.000000   2.610107
    C   -0.031765  -1.213120   1.915444
    C   -0.036678  -1.219375   0.524165
    C   -0.000000   0.000000  -1.644734
    H    0.018170   2.164705  -0.010854
    H    0.042402   2.152895   2.457886
    H    0.000000   0.000000   3.695756
    H   -0.042402  -2.152895   2.457886
    H   -0.018170  -2.164705  -0.010853
    N   -0.712590  -0.905950  -2.308461
    N    0.712590   0.905950  -2.308460
    H    0.673432   1.006470  -3.315997
    H    1.377190   1.485970  -1.813316
    H   -1.336789  -0.612786  -3.048538
    H   -0.615451  -1.902804  -2.154800
}

set optking { frozen_dihedral = (" 1 7 13 17 ") }

set optking { dynamic_level = 1
 geom_maxiter = 250
 print_trajectory_xyz_file = True }

energy, wfn = optimize('B3LYP-D3', return_wfn=True)

import os
os.chdir(os.environ['HTMD_PSI4_WORKDIR'])

oeprop(wfn, 'DIPOLE', 'QUADRUPOLE', 'MULLIKEN_CHARGES')

with open('psi4out.xyz', 'w') as f:
    f.write('18 ' )
    f.write('%.12f\n' % energy)
    f.write(MOL.save_string_xyz())
--------------------------------------------------------------------------

    Molecular point group: c1
  Charge       = 1
  Multiplicity = 1
  Basis Set: 6-31G*
    Blend: 6-31G*
  Basis Set: (6-31G* AUX)
    Blend: CC-PVDZ-JKFIT
  @DF-RKS Final Energy:  -381.43962704498898
    Total Energy =                       -381.4396270449889812
    Molecular point group: c1
  Basis Set: 6-31G*
    Blend: 6-31G*
  Basis Set: (6-31G* AUX)
    Blend: CC-PVDZ-JKFIT
  Basis Set: 6-31G*
    Blend: 6-31G*
  Basis Set: (6-31G* AUX)
    Blend: CC-PVDZ-JKFIT
  @DF-RKS Final Energy:  -381.44853870422003
    Total Energy =                       -381.4485387042200841
  Basis Set: 6-31G*
    Blend: 6-31G*
  Basis Set: (6-31G* AUX)
    Blend: CC-PVDZ-JKFIT
  Basis Set: 6-31G*
    Blend: 6-31G*
  @DF-RKS Final Energy:  -381.45296556404026
    Total Energy =                       -381.4529655640401984
  @DF-RKS Final Energy:  -381.44853870421866
    Total Energy =                       -381.4485387042186062
  @DF-RKS Final Energy:  -381.45183183470863
    Total Energy =                       -381.4518318347086279
  @DF-RKS Final Energy:  -381.45433785479969
    Total Energy =                       -381.4543378547997463
  @DF-RKS Final Energy:  -381.45636792205983
    Total Energy =                       -381.4563679220598829
  @DF-RKS Final Energy:  -381.45785892966978
    Total Energy =                       -381.4578589296697260
  @DF-RKS Final Energy:  -381.45869712366527
    Total Energy =                       -381.4586971236652744
  @DF-RKS Final Energy:  -381.45887973882600
    Total Energy =                       -381.4588797388259991
  @DF-RKS Final Energy:  -381.45890698017536
    Total Energy =                       -381.4589069801752999
  @DF-RKS Final Energy:  -381.45890875481274
    Total Energy =                       -381.4589087548127964
  @DF-RKS Final Energy:  -381.45861288078976
    Total Energy =                       -381.4586128807897580
  Basis Set: (6-31G* AUX)
    Blend: CC-PVDZ-JKFIT
  Basis Set: 6-31G*
    Blend: 6-31G*
  Basis Set: (6-31G* AUX)
    Blend: CC-PVDZ-JKFIT
  @DF-RKS Final Energy:  -381.45882344247156
    Total Energy =                       -381.4588234424716120
  Basis Set: 6-31G*
    Blend: 6-31G*
  Basis Set: (6-31G* AUX)
    Blend: CC-PVDZ-JKFIT
  Charge       = 1
  Multiplicity = 1
  Basis Set: 6-31G*
    Blend: 6-31G*
  Basis Set: (6-31G* AUX)
    Blend: CC-PVDZ-JKFIT

    Orbital Energies [Eh]
    ---------------------

    Doubly Occupied:

       1A    -14.575241     2A    -14.557669     3A    -10.501648
       4A    -10.379051     5A    -10.361589     6A    -10.360397
       7A    -10.346534     8A    -10.344376     9A    -10.344095
      10A     -1.185366    11A     -1.092188    12A     -1.018352
      13A     -0.929512    14A     -0.906516    15A     -0.845690
      16A     -0.786165    17A     -0.775744    18A     -0.739503
      19A     -0.731110    20A     -0.677200    21A     -0.671578
      22A     -0.634276    23A     -0.612993    24A     -0.596913
      25A     -0.580483    26A     -0.577853    27A     -0.519582
      28A     -0.511430    29A     -0.502300    30A     -0.474507
      31A     -0.413647    32A     -0.409538

  @DF-RKS Final Energy:  -381.45890875481325

   => Energetics <=

    Nuclear Repulsion Energy =            416.5846934980075957
    One-Electron Energy =               -1328.2173167140840633
    Two-Electron Energy =                 574.5856046127697709
    DFT Exchange-Correlation Energy =     -44.4000815615065818
    Empirical Dispersion Energy =          -0.0118085900000000
    VV10 Nonlocal Energy =                  0.0000000000000000
    Total Energy =                       -381.4589087548132511
    Molecular point group: c1
  Basis Set: 6-31G*
    Blend: 6-31G*
  Basis Set: (6-31G* AUX)
    Blend: CC-PVDZ-JKFIT

  -Total Gradient:
     Atom            X                  Y                   Z
    ------   -----------------  -----------------  -----------------
       1       -0.007626217084     0.005474246597    -0.000111926196
       2        0.000031246735    -0.000052369215    -0.000008087464
       3       -0.000002541347     0.000011149760    -0.000021317730
       4       -0.000002672702    -0.000032604412    -0.000006837835
       5        0.000000424609     0.000003453403     0.000029220972
       6        0.000006074720    -0.000002645009     0.000007592321
       7        0.008240216552    -0.008157345458     0.003158144403
       8       -0.000002045171     0.000011493490     0.000020304625
       9       -0.000001028396     0.000001213269    -0.000006837950
      10        0.000001872986    -0.000001416692    -0.000004005671
      11       -0.000001268902    -0.000001241355    -0.000000333528
      12        0.000012490768     0.000010281561     0.000031397342
      13        0.009298582989     0.002059378266    -0.011344980182
      14        0.000019174441    -0.000131210476    -0.000003235207
      15       -0.000017434569     0.000012624755     0.000004850722
      16       -0.000027774899    -0.000048724913    -0.000020980375
      17       -0.010019514084     0.000680739139     0.008392788468
      18        0.000095343401     0.000154168517    -0.000126214766

  **** Optimization is complete! (in 1 steps) ****
    Final optimized geometry and variables:
    Molecular point group: c1

    Geometry (in Angstrom), charge = 1, multiplicity = 1:

    C            0.065733512931    -0.029207620281    -0.194086223395
    C            0.075081983076     1.192094786632     0.506976833324
    C            0.019382457282     1.189759263961     1.897231314996
    C           -0.020019297221    -0.019629853376     2.596902644200
    C           -0.014179894013    -1.235202512258     1.905672649627
    C            0.021841743431    -1.245216011236     0.515702844126
    C            0.089245849897    -0.031865728685    -1.661052113085
    H            0.060258988772     2.140168112082    -0.022903664742
    H           -0.001083914867     2.132556158870     2.434118427342
    H           -0.056724700795    -0.015058382311     3.681834921913
    H           -0.030004706096    -2.173733413980     2.450008753322
    H            0.069051434937    -2.196899750418    -0.007385440083
    N           -0.571989468432    -0.972165795090    -2.374173382467
    N            0.683790563452     0.950108441294    -2.321552836934
    H            0.699049701777     0.980168502579    -3.335063233662
    H            1.250185439537     1.631719765299    -1.833331501974
    H           -1.182264068234    -0.663633628726    -3.126378799281
    H           -1.058973625432    -1.657113334353    -1.805545193227

  Dipole Moment: [D]
     X:    -0.4035      Y:     0.7972      Z:    -5.0494     Total:     5.1279

  Mulliken Charges: (a.u.)
   Center  Symbol    Alpha    Beta     Spin     Total
       1     C     2.94468  2.94468  0.00000  0.11064
       2     C     3.08388  3.08388  0.00000 -0.16776
       3     C     3.06208  3.06208  0.00000 -0.12417
       4     C     3.05130  3.05130  0.00000 -0.10261
       5     C     3.06215  3.06215  0.00000 -0.12429
       6     C     3.08749  3.08749  0.00000 -0.17498
       7     C     2.74681  2.74681  0.00000  0.50638
       8     H     0.41595  0.41595  0.00000  0.16811
       9     H     0.40462  0.40462  0.00000  0.19076
      10     H     0.40289  0.40289  0.00000  0.19421
      11     H     0.40424  0.40424  0.00000  0.19152
      12     H     0.41128  0.41128  0.00000  0.17744
      13     N     3.85737  3.85737  0.00000 -0.71473
      14     N     3.85312  3.85312  0.00000 -0.70624
      15     H     0.30114  0.30114  0.00000  0.39773
      16     H     0.29861  0.29861  0.00000  0.40277
      17     H     0.30477  0.30477  0.00000  0.39045
      18     H     0.30761  0.30761  0.00000  0.38477

   Total alpha = 32.00000, Total beta = 32.00000, Total charge =  1.00000

*** Psi4 exiting successfully. Buy a developer a beer!
