                               Psi4 1.2.1 release

  ==> Input File <==

--------------------------------------------------------------------------
set_num_threads(1)
set_memory('5348 MB')

set { scf_mem_safety_factor 0.7 }

set { reference rks }
set { basis cc-pVDZ }

molecule MOL {
    0 1
    noreorient
    nocom
    symmetry c1
    O    1.014300  -0.002300   0.060500
    O    2.462400  -0.107500  -0.002400
    H    0.821200  -0.823600  -0.430600
    H    2.491927  -0.944900  -0.503126
}

set optking { frozen_dihedral = (" 3 1 2 4 ") }

set optking { dynamic_level = 1
 geom_maxiter = 250
 print_trajectory_xyz_file = True }

energy, wfn = optimize('B3LYP-D3', return_wfn=True)

import os
os.chdir(os.environ['HTMD_PSI4_WORKDIR'])

oeprop(wfn, 'DIPOLE', 'QUADRUPOLE', 'MULLIKEN_CHARGES')

with open('psi4out.xyz', 'w') as f:
    f.write('4 ' )
    f.write('%.12f\n' % energy)
    f.write(MOL.save_string_xyz())
--------------------------------------------------------------------------

    Molecular point group: c1
  Charge       = 0
  Multiplicity = 1
  Basis Set: CC-PVDZ
    Blend: CC-PVDZ
  Basis Set: (CC-PVDZ AUX)
    Blend: CC-PVDZ-JKFIT
  @DF-RKS Final Energy:  -151.53343244594282
    Total Energy =                       -151.5334324459427933
    Molecular point group: c1
  Basis Set: CC-PVDZ
    Blend: CC-PVDZ
  Basis Set: (CC-PVDZ AUX)
    Blend: CC-PVDZ-JKFIT
  Basis Set: CC-PVDZ
    Blend: CC-PVDZ
  Basis Set: (CC-PVDZ AUX)
    Blend: CC-PVDZ-JKFIT
  @DF-RKS Final Energy:  -151.53678385869748
    Total Energy =                       -151.5367838586974472
  Basis Set: CC-PVDZ
    Blend: CC-PVDZ
  Basis Set: (CC-PVDZ AUX)
    Blend: CC-PVDZ-JKFIT
  Basis Set: CC-PVDZ
    Blend: CC-PVDZ
  @DF-RKS Final Energy:  -151.53850015773131
    Total Energy =                       -151.5385001577313346
  Basis Set: (CC-PVDZ AUX)
    Blend: CC-PVDZ-JKFIT
  Basis Set: CC-PVDZ
    Blend: CC-PVDZ
  Basis Set: (CC-PVDZ AUX)
    Blend: CC-PVDZ-JKFIT
  @DF-RKS Final Energy:  -151.53857095166404
    Total Energy =                       -151.5385709516640702
  Basis Set: CC-PVDZ
    Blend: CC-PVDZ
  Basis Set: (CC-PVDZ AUX)
    Blend: CC-PVDZ-JKFIT
  Charge       = 0
  Multiplicity = 1
  Basis Set: CC-PVDZ
    Blend: CC-PVDZ
  Basis Set: (CC-PVDZ AUX)
    Blend: CC-PVDZ-JKFIT

    Orbital Energies [Eh]
    ---------------------

    Doubly Occupied:

       1A    -19.189994     2A    -19.189966     3A     -1.107508
       4A     -0.894397     5A     -0.563961     6A     -0.418220
       7A     -0.388957     8A     -0.377567     9A     -0.246267

  @DF-RKS Final Energy:  -151.53857647391914

   => Energetics <=

    Nuclear Repulsion Energy =             36.4952794121724864
    One-Electron Energy =                -280.9329266119851809
    Two-Electron Energy =                 107.3564487438222983
    DFT Exchange-Correlation Energy =     -14.4570785079287383
    Empirical Dispersion Energy =          -0.0002995100000000
    VV10 Nonlocal Energy =                  0.0000000000000000
    Total Energy =                       -151.5385764739191075
    Molecular point group: c1
  Basis Set: CC-PVDZ
    Blend: CC-PVDZ
  Basis Set: (CC-PVDZ AUX)
    Blend: CC-PVDZ-JKFIT

  -Total Gradient:
     Atom            X                  Y                   Z
    ------   -----------------  -----------------  -----------------
       1       -0.000142141478     0.000052157192     0.000031182453
       2        0.000150216291     0.000031337920     0.000018743768
       3        0.000080153618    -0.000040069192    -0.000023955728
       4       -0.000086745836    -0.000028387375    -0.000016978136

  **** Optimization is complete! (in 5 steps) ****
    Final optimized geometry and variables:
    Molecular point group: c1

    Geometry (in Angstrom), charge = 0, multiplicity = 1:

    O            1.009343434052    -0.013866463104     0.053583759251
    O            2.465003892979    -0.119583892395    -0.009625579722
    H            0.685398638997    -0.801808194471    -0.417569967158
    H            2.630081033972    -0.943041450030    -0.502014212371

  Dipole Moment: [D]
     X:    -0.2669      Y:    -2.7073      Z:    -1.6188     Total:     3.1656

  Mulliken Charges: (a.u.)
   Center  Symbol    Alpha    Beta     Spin     Total
       1     O     4.08058  4.08058  0.00000 -0.16116
       2     O     4.08058  4.08058  0.00000 -0.16116
       3     H     0.41942  0.41942  0.00000  0.16116
       4     H     0.41942  0.41942  0.00000  0.16116

   Total alpha =  9.00000, Total beta =  9.00000, Total charge = -0.00000

*** Psi4 exiting successfully. Buy a developer a beer!
