                               Psi4 1.2.1 release

  ==> Input File <==

--------------------------------------------------------------------------
set_num_threads(4)
set_memory('3000 MB')

set { scf_mem_safety_factor 0.7 }

set { reference rks }
set { basis 6-31G* }

molecule MOL {
    1 1
    noreorient
    nocom
    symmetry c1
    C   -0.000000  -0.000000  -0.177864
    C    0.036678   1.219374   0.524165
    C    0.031765   1.213120   1.915444
    C    0.000000   0.000000   2.610107
    C   -0.031765  -1.213120   1.915444
    C   -0.036678  -1.219375   0.524165
    C   -0.000000   0.000000  -1.644734
    H    0.018170   2.164705  -0.010854
    H    0.042402   2.152895   2.457886
    H    0.000000   0.000000   3.695756
    H   -0.042402  -2.152895   2.457886
    H   -0.018170  -2.164705  -0.010853
    N   -0.426605  -1.070765  -2.308461
    N    0.426605   1.070765  -2.308460
    H    0.360563   1.156065  -3.315997
    H    0.899563   1.815363  -1.813316
    H   -0.899563  -1.815363  -1.813317
    H   -0.360563  -1.156065  -3.315997
}

set optking { frozen_dihedral = (" 2 1 7 13 ") }

set optking { dynamic_level = 1
 geom_maxiter = 250
 print_trajectory_xyz_file = True }

energy, wfn = optimize('B3LYP-D3', return_wfn=True)

import os
os.chdir(os.environ['HTMD_PSI4_WORKDIR'])

oeprop(wfn, 'DIPOLE', 'QUADRUPOLE', 'MULLIKEN_CHARGES')

with open('psi4out.xyz', 'w') as f:
    f.write('18 ' )
    f.write('%.12f\n' % energy)
    f.write(MOL.save_string_xyz())
--------------------------------------------------------------------------

    Molecular point group: c1
  Charge       = 1
  Multiplicity = 1
  Basis Set: 6-31G*
    Blend: 6-31G*
  Basis Set: (6-31G* AUX)
    Blend: CC-PVDZ-JKFIT
  @DF-RKS Final Energy:  -381.46858126031697
    Total Energy =                       -381.4685812603170234
    Molecular point group: c1
  Basis Set: 6-31G*
    Blend: 6-31G*
  Basis Set: (6-31G* AUX)
    Blend: CC-PVDZ-JKFIT
  Basis Set: 6-31G*
    Blend: 6-31G*
  Basis Set: (6-31G* AUX)
    Blend: CC-PVDZ-JKFIT
  @DF-RKS Final Energy:  -381.46899750473500
    Total Energy =                       -381.4689975047350572
  Basis Set: 6-31G*
    Blend: 6-31G*
  Basis Set: (6-31G* AUX)
    Blend: CC-PVDZ-JKFIT
  Basis Set: 6-31G*
    Blend: 6-31G*
  @DF-RKS Final Energy:  -381.46926020515332
    Total Energy =                       -381.4692602051533186
  @DF-RKS Final Energy:  -381.46926988111085
    Total Energy =                       -381.4692698811109040
  Basis Set: (6-31G* AUX)
    Blend: CC-PVDZ-JKFIT
  Basis Set: 6-31G*
    Blend: 6-31G*
  Basis Set: (6-31G* AUX)
    Blend: CC-PVDZ-JKFIT
  @DF-RKS Final Energy:  -381.46927534514424
    Total Energy =                       -381.4692753451442400
  Basis Set: 6-31G*
    Blend: 6-31G*
  Basis Set: (6-31G* AUX)
    Blend: CC-PVDZ-JKFIT
  Charge       = 1
  Multiplicity = 1
  Basis Set: 6-31G*
    Blend: 6-31G*
  Basis Set: (6-31G* AUX)
    Blend: CC-PVDZ-JKFIT

    Orbital Energies [Eh]
    ---------------------

    Doubly Occupied:

       1A    -14.566407     2A    -14.566149     3A    -10.497133
       4A    -10.375243     5A    -10.358568     6A    -10.358350
       7A    -10.345282     8A    -10.341990     9A    -10.341870
      10A     -1.183022    11A     -1.090134    12A     -1.015770
      13A     -0.927873    14A     -0.904122    15A     -0.846442
      16A     -0.785671    17A     -0.775223    18A     -0.737894
      19A     -0.735550    20A     -0.688685    21A     -0.669276
      22A     -0.628773    23A     -0.613723    24A     -0.592700
      25A     -0.580778    26A     -0.574781    27A     -0.518405
      28A     -0.507888    29A     -0.499693    30A     -0.471900
      31A     -0.413005    32A     -0.407223

  @DF-RKS Final Energy:  -381.46927594224877

   => Energetics <=

    Nuclear Repulsion Energy =            416.8679838375773556
    One-Electron Energy =               -1328.8875111249487873
    Two-Electron Energy =                 574.9685474057456531
    DFT Exchange-Correlation Energy =     -44.4065692106230543
    Empirical Dispersion Energy =          -0.0117268500000000
    VV10 Nonlocal Energy =                  0.0000000000000000
    Total Energy =                       -381.4692759422487711
    Molecular point group: c1
  Basis Set: 6-31G*
    Blend: 6-31G*
  Basis Set: (6-31G* AUX)
    Blend: CC-PVDZ-JKFIT

  -Total Gradient:
     Atom            X                  Y                   Z
    ------   -----------------  -----------------  -----------------
       1       -0.003736414906    -0.000461474911    -0.000118825793
       2        0.003609375918    -0.000153237434     0.000098011932
       3        0.000012217298     0.000003485485    -0.000003529100
       4        0.000002716612    -0.000004004689     0.000012906693
       5        0.000005116237    -0.000003052457     0.000010768065
       6       -0.000012829189     0.000013771505    -0.000022526994
       7       -0.003390031641     0.002089707625    -0.000063631380
       8       -0.000003052916     0.000010138701    -0.000006665882
       9       -0.000002349481     0.000003213632    -0.000006110136
      10       -0.000001401506     0.000000019883    -0.000003555056
      11       -0.000000954601    -0.000000938198    -0.000005599352
      12       -0.000006499134    -0.000001855677    -0.000000945285
      13        0.003531839089    -0.001445818522     0.000078679403
      14        0.000012617833    -0.000009066784     0.000011707296
      15       -0.000009824453    -0.000001012506    -0.000000380320
      16       -0.000014676797    -0.000009432807     0.000006134062
      17        0.000002423400    -0.000010526939    -0.000002741411
      18        0.000009964547    -0.000009904608     0.000002721230

  **** Optimization is complete! (in 6 steps) ****
    Final optimized geometry and variables:
    Molecular point group: c1

    Geometry (in Angstrom), charge = 1, multiplicity = 1:

    C           -0.053897294481     0.005110429353    -0.176895678847
    C           -0.019087055445     1.221401772023     0.533533961675
    C            0.010511032410     1.215362580112     1.923434906285
    C            0.017430212140     0.002073322931     2.618382223855
    C           -0.001913854233    -1.209342064551     1.921150762828
    C           -0.030563413862    -1.212943407554     0.530822234285
    C           -0.025724610622     0.003522087050    -1.643142770828
    H           -0.081347864175     2.172488674001     0.012282123286
    H            0.018224122616     2.155514503880     2.465132653264
    H            0.041952587173     0.000920196697     3.703732350557
    H            0.022869202094    -2.150625086474     2.460388991055
    H            0.018931783018    -2.162284181738     0.005919933362
    N           -0.448352817179    -1.060339665752    -2.324834633926
    N            0.471236436782     1.044281220922    -2.308686551586
    H            0.444161979408     1.107404961210    -3.319219918808
    H            0.979890563374     1.768873384472    -1.820955068871
    H           -1.003600231303    -1.771442814810    -1.868526433108
    H           -0.360720777714    -1.129976911772    -3.331519084477

  Dipole Moment: [D]
     X:     0.0302      Y:     0.0002      Z:    -5.5790     Total:     5.5791

  Mulliken Charges: (a.u.)
   Center  Symbol    Alpha    Beta     Spin     Total
       1     C     2.94353  2.94353  0.00000  0.11294
       2     C     3.08709  3.08709  0.00000 -0.17418
       3     C     3.06226  3.06226  0.00000 -0.12452
       4     C     3.05124  3.05124  0.00000 -0.10249
       5     C     3.06154  3.06154  0.00000 -0.12309
       6     C     3.08381  3.08381  0.00000 -0.16763
       7     C     2.71253  2.71253  0.00000  0.57494
       8     H     0.41591  0.41591  0.00000  0.16818
       9     H     0.40512  0.40512  0.00000  0.18976
      10     H     0.40316  0.40316  0.00000  0.19369
      11     H     0.40509  0.40509  0.00000  0.18981
      12     H     0.41645  0.41645  0.00000  0.16709
      13     N     3.86980  3.86980  0.00000 -0.73961
      14     N     3.86912  3.86912  0.00000 -0.73824
      15     H     0.30586  0.30586  0.00000  0.38828
      16     H     0.30065  0.30065  0.00000  0.39870
      17     H     0.30091  0.30091  0.00000  0.39819
      18     H     0.30591  0.30591  0.00000  0.38818

   Total alpha = 32.00000, Total beta = 32.00000, Total charge =  1.00000

*** Psi4 exiting successfully. Buy a developer a beer!
