                               Psi4 1.2.1 release

  ==> Input File <==

--------------------------------------------------------------------------
set_num_threads(4)
set_memory('3000 MB')

set { scf_mem_safety_factor 0.7 }

set { reference rks }
set { basis 6-31G* }

molecule MOL {
    1 1
    noreorient
    nocom
    symmetry c1
    C   -0.000000  -0.000000  -0.177864
    C    0.036678   1.219374   0.524165
    C    0.031765   1.213120   1.915444
    C    0.000000   0.000000   2.610107
    C   -0.031765  -1.213120   1.915444
    C   -0.036678  -1.219375   0.524165
    C   -0.000000   0.000000  -1.644734
    H    0.018170   2.164705  -0.010854
    H    0.042402   2.152895   2.457886
    H    0.000000   0.000000   3.695756
    H   -0.042402  -2.152895   2.457886
    H   -0.018170  -2.164705  -0.010853
    N   -0.712590  -0.905950  -2.308461
    N    0.712590   0.905950  -2.308460
    H    0.673432   1.006470  -3.315997
    H    1.377190   1.485970  -1.813316
    H   -1.377190  -1.485970  -1.813317
    H   -0.673432  -1.006469  -3.315997
}

energy, wfn = energy('B3LYP-D3', return_wfn=True)

import os
os.chdir(os.environ['HTMD_PSI4_WORKDIR'])

oeprop(wfn, 'DIPOLE', 'QUADRUPOLE', 'MULLIKEN_CHARGES')
oeprop(wfn, 'GRID_ESP')

with open('psi4out.xyz', 'w') as f:
    f.write('18 ' )
    f.write('%.12f\n' % energy)
    f.write(MOL.save_string_xyz())
--------------------------------------------------------------------------

    Molecular point group: c1

    Geometry (in Angstrom), charge = 1, multiplicity = 1:

       Center              X                  Y                   Z               Mass
    ------------   -----------------  -----------------  -----------------  -----------------
         C            0.000000000000     0.000000000000    -0.177864000000    12.000000000000
         C            0.036678000000     1.219374000000     0.524165000000    12.000000000000
         C            0.031765000000     1.213120000000     1.915444000000    12.000000000000
         C            0.000000000000     0.000000000000     2.610107000000    12.000000000000
         C           -0.031765000000    -1.213120000000     1.915444000000    12.000000000000
         C           -0.036678000000    -1.219375000000     0.524165000000    12.000000000000
         C            0.000000000000     0.000000000000    -1.644734000000    12.000000000000
         H            0.018170000000     2.164705000000    -0.010854000000     1.007825032070
         H            0.042402000000     2.152895000000     2.457886000000     1.007825032070
         H            0.000000000000     0.000000000000     3.695756000000     1.007825032070
         H           -0.042402000000    -2.152895000000     2.457886000000     1.007825032070
         H           -0.018170000000    -2.164705000000    -0.010853000000     1.007825032070
         N           -0.712590000000    -0.905950000000    -2.308461000000    14.003074004780
         N            0.712590000000     0.905950000000    -2.308460000000    14.003074004780
         H            0.673432000000     1.006470000000    -3.315997000000     1.007825032070
         H            1.377190000000     1.485970000000    -1.813316000000     1.007825032070
         H           -1.377190000000    -1.485970000000    -1.813317000000     1.007825032070
         H           -0.673432000000    -1.006469000000    -3.315997000000     1.007825032070

  Charge       = 1
  Multiplicity = 1
  Basis Set: 6-31G*
    Blend: 6-31G*
  Basis Set: (6-31G* AUX)
    Blend: CC-PVDZ-JKFIT

    Orbital Energies [Eh]
    ---------------------

    Doubly Occupied:

       1A    -14.568044     2A    -14.568037     3A    -10.497180
       4A    -10.373175     5A    -10.356122     6A    -10.356113
       7A    -10.342965     8A    -10.340403     9A    -10.340347
      10A     -1.183829    11A     -1.091958    12A     -1.014244
      13A     -0.926589    14A     -0.902174    15A     -0.845401
      16A     -0.785712    17A     -0.773382    18A     -0.741668
      19A     -0.732897    20A     -0.688869    21A     -0.669057
      22A     -0.625497    23A     -0.617234    24A     -0.586922
      25A     -0.579015    26A     -0.572822    27A     -0.518317
      28A     -0.505465    29A     -0.498054    30A     -0.472891
      31A     -0.411668    32A     -0.405683

  @DF-RKS Final Energy:  -381.47050945903675

   => Energetics <=

    Nuclear Repulsion Energy =            416.9185994182534500
    One-Electron Energy =               -1329.0469937900088553
    Two-Electron Energy =                 575.0757829563905261
    DFT Exchange-Correlation Energy =     -44.4059659236718645
    Empirical Dispersion Energy =          -0.0119321200000000
    VV10 Nonlocal Energy =                  0.0000000000000000
    Total Energy =                       -381.4705094590366912

  Dipole Moment: [D]
     X:     0.0000      Y:    -0.0001      Z:    -5.7334     Total:     5.7334

  Mulliken Charges: (a.u.)
   Center  Symbol    Alpha    Beta     Spin     Total
       1     C     2.95717  2.95717  0.00000  0.08566
       2     C     3.08208  3.08208  0.00000 -0.16415
       3     C     3.06249  3.06249  0.00000 -0.12498
       4     C     3.05148  3.05148  0.00000 -0.10295
       5     C     3.06249  3.06249  0.00000 -0.12497
       6     C     3.08207  3.08207  0.00000 -0.16415
       7     C     2.72193  2.72193  0.00000  0.55615
       8     H     0.41420  0.41420  0.00000  0.17160
       9     H     0.40544  0.40544  0.00000  0.18911
      10     H     0.40389  0.40389  0.00000  0.19223
      11     H     0.40544  0.40544  0.00000  0.18911
      12     H     0.41420  0.41420  0.00000  0.17160
      13     N     3.86323  3.86323  0.00000 -0.72645
      14     N     3.86323  3.86323  0.00000 -0.72645
      15     H     0.30570  0.30570  0.00000  0.38861
      16     H     0.29964  0.29964  0.00000  0.40072
      17     H     0.29964  0.29964  0.00000  0.40072
      18     H     0.30570  0.30570  0.00000  0.38861

   Total alpha = 32.00000, Total beta = 32.00000, Total charge =  1.00000

*** Psi4 exiting successfully. Buy a developer a beer!
