                               Psi4 1.2.1 release

  ==> Input File <==

--------------------------------------------------------------------------
set_num_threads(1)
set_memory('5348 MB')

set { scf_mem_safety_factor 0.7 }

set { reference rks }
set { basis cc-pVDZ }

molecule MOL {
    0 1
    noreorient
    nocom
    symmetry c1
    C    0.940800  -0.041500  -0.056200
    C    2.276600  -0.041500  -0.056200
    H    0.380900   0.578300  -0.749400
    H    0.380900  -0.661400   0.637000
    H    2.836500  -0.070714   0.873222
    H    2.836500  -0.012209  -0.985686
}

set optking { frozen_dihedral = (" 3 1 2 5 ") }

energy, wfn = energy('B3LYP-D3', return_wfn=True)

import os
os.chdir(os.environ['HTMD_PSI4_WORKDIR'])

oeprop(wfn, 'DIPOLE', 'QUADRUPOLE', 'MULLIKEN_CHARGES')

with open('psi4out.xyz', 'w') as f:
    f.write('6 ' )
    f.write('%.12f\n' % energy)
    f.write(MOL.save_string_xyz())
--------------------------------------------------------------------------

    Molecular point group: c1

    Geometry (in Angstrom), charge = 0, multiplicity = 1:

       Center              X                  Y                   Z               Mass
    ------------   -----------------  -----------------  -----------------  -----------------
         C            0.940800000000    -0.041500000000    -0.056200000000    12.000000000000
         C            2.276600000000    -0.041500000000    -0.056200000000    12.000000000000
         H            0.380900000000     0.578300000000    -0.749400000000     1.007825032070
         H            0.380900000000    -0.661400000000     0.637000000000     1.007825032070
         H            2.836500000000    -0.070714000000     0.873222000000     1.007825032070
         H            2.836500000000    -0.012209000000    -0.985686000000     1.007825032070

  Charge       = 0
  Multiplicity = 1
  Basis Set: CC-PVDZ
    Blend: CC-PVDZ
  Basis Set: (CC-PVDZ AUX)
    Blend: CC-PVDZ-JKFIT

    Orbital Energies [Eh]
    ---------------------

    Doubly Occupied:

       1A    -10.188582     2A    -10.187801     3A     -0.761513
       4A     -0.579171     5A     -0.462092     6A     -0.417179
       7A     -0.383819     8A     -0.239340

  @DF-RKS Final Energy:   -78.55965727584261

   => Energetics <=

    Nuclear Repulsion Energy =             33.3139580395908226
    One-Electron Energy =                -170.1482430638748724
    Two-Electron Energy =                  68.2243828897861562
    DFT Exchange-Correlation Energy =      -9.9489038413447197
    Empirical Dispersion Energy =          -0.0008513000000000
    VV10 Nonlocal Energy =                  0.0000000000000000
    Total Energy =                        -78.5596572758425964

  Dipole Moment: [D]
     X:    -0.0000      Y:    -0.0000      Z:    -0.0000     Total:     0.0000

  Mulliken Charges: (a.u.)
   Center  Symbol    Alpha    Beta     Spin     Total
       1     C     3.02758  3.02758  0.00000 -0.05517
       2     C     3.02759  3.02759  0.00000 -0.05517
       3     H     0.48621  0.48621  0.00000  0.02758
       4     H     0.48620  0.48620  0.00000  0.02759
       5     H     0.48621  0.48621  0.00000  0.02758
       6     H     0.48621  0.48621  0.00000  0.02759

   Total alpha =  8.00000, Total beta =  8.00000, Total charge =  0.00000

*** Psi4 exiting successfully. Buy a developer a beer!
