                               Psi4 1.2.1 release

  ==> Input File <==

--------------------------------------------------------------------------
set_num_threads(4)
set_memory('3000 MB')

set { scf_mem_safety_factor 0.7 }

set { reference rks }
set { basis 6-31G* }

molecule MOL {
    1 1
    noreorient
    nocom
    symmetry c1
    C   -0.000000  -0.000000  -0.177864
    C    0.036678   1.219374   0.524165
    C    0.031765   1.213120   1.915444
    C    0.000000   0.000000   2.610107
    C   -0.031765  -1.213120   1.915444
    C   -0.036678  -1.219375   0.524165
    C   -0.000000   0.000000  -1.644734
    H    0.018170   2.164705  -0.010854
    H    0.042402   2.152895   2.457886
    H    0.000000   0.000000   3.695756
    H   -0.042402  -2.152895   2.457886
    H   -0.018170  -2.164705  -0.010853
    N   -0.860283   0.767101  -2.308460
    N    0.860283  -0.767100  -2.308461
    H    0.963025  -0.734216  -3.315997
    H    1.398215  -1.466204  -1.813317
    H   -1.398215   1.466204  -1.813316
    H   -0.963026   0.734216  -3.315997
}

set optking { frozen_dihedral = (" 2 1 7 13 ") }

set optking { dynamic_level = 1
 geom_maxiter = 250
 print_trajectory_xyz_file = True }

energy, wfn = optimize('B3LYP-D3', return_wfn=True)

import os
os.chdir(os.environ['HTMD_PSI4_WORKDIR'])

oeprop(wfn, 'DIPOLE', 'QUADRUPOLE', 'MULLIKEN_CHARGES')

with open('psi4out.xyz', 'w') as f:
    f.write('18 ' )
    f.write('%.12f\n' % energy)
    f.write(MOL.save_string_xyz())
--------------------------------------------------------------------------

    Molecular point group: c1
  Charge       = 1
  Multiplicity = 1
  Basis Set: 6-31G*
    Blend: 6-31G*
  Basis Set: (6-31G* AUX)
    Blend: CC-PVDZ-JKFIT
  @DF-RKS Final Energy:  -381.46496449210991
    Total Energy =                       -381.4649644921098570
    Molecular point group: c1
  Basis Set: 6-31G*
    Blend: 6-31G*
  Basis Set: (6-31G* AUX)
    Blend: CC-PVDZ-JKFIT
  Basis Set: 6-31G*
    Blend: 6-31G*
  Basis Set: (6-31G* AUX)
    Blend: CC-PVDZ-JKFIT
  @DF-RKS Final Energy:  -381.46837330554951
    Total Energy =                       -381.4683733055495054
  Basis Set: 6-31G*
    Blend: 6-31G*
  Basis Set: (6-31G* AUX)
    Blend: CC-PVDZ-JKFIT
  Basis Set: 6-31G*
    Blend: 6-31G*
  @DF-RKS Final Energy:  -381.46947800093807
    Total Energy =                       -381.4694780009380679
  @DF-RKS Final Energy:  -381.46965221819590
    Total Energy =                       -381.4696522181958471
  @DF-RKS Final Energy:  -381.46966013831275
    Total Energy =                       -381.4696601383127472
  Basis Set: (6-31G* AUX)
    Blend: CC-PVDZ-JKFIT
  Basis Set: 6-31G*
    Blend: 6-31G*
  Basis Set: (6-31G* AUX)
    Blend: CC-PVDZ-JKFIT
  @DF-RKS Final Energy:  -381.46966155910002
    Total Energy =                       -381.4696615591000182
  Basis Set: 6-31G*
    Blend: 6-31G*
  Basis Set: (6-31G* AUX)
    Blend: CC-PVDZ-JKFIT
  Charge       = 1
  Multiplicity = 1
  Basis Set: 6-31G*
    Blend: 6-31G*
  Basis Set: (6-31G* AUX)
    Blend: CC-PVDZ-JKFIT

    Orbital Energies [Eh]
    ---------------------

    Doubly Occupied:

       1A    -14.570082     2A    -14.570055     3A    -10.498155
       4A    -10.371587     5A    -10.354314     6A    -10.353911
       7A    -10.340478     8A    -10.338721     9A    -10.338618
      10A     -1.185301    11A     -1.093995    12A     -1.012844
      13A     -0.925378    14A     -0.900314    15A     -0.844997
      16A     -0.786185    17A     -0.771426    18A     -0.745496
      19A     -0.731112    20A     -0.689107    21A     -0.668679
      22A     -0.622611    23A     -0.619741    24A     -0.583254
      25A     -0.577372    26A     -0.571298    27A     -0.517964
      28A     -0.503060    29A     -0.496377    30A     -0.474433
      31A     -0.410011    32A     -0.403866

  @DF-RKS Final Energy:  -381.46966186328348

   => Energetics <=

    Nuclear Repulsion Energy =            416.8620095379221766
    One-Electron Energy =               -1328.9741781401639855
    Two-Electron Energy =                 575.0600025437328213
    DFT Exchange-Correlation Energy =     -44.4055136147745131
    Empirical Dispersion Energy =          -0.0119821900000000
    VV10 Nonlocal Energy =                  0.0000000000000000
    Total Energy =                       -381.4696618632835339
    Molecular point group: c1
  Basis Set: 6-31G*
    Blend: 6-31G*
  Basis Set: (6-31G* AUX)
    Blend: CC-PVDZ-JKFIT

  -Total Gradient:
     Atom            X                  Y                   Z
    ------   -----------------  -----------------  -----------------
       1       -0.005341458386    -0.000845495910    -0.000195102364
       2        0.002972806163    -0.000117921907     0.000091051887
       3        0.000023596349     0.000004162181    -0.000006829579
       4        0.000005301768     0.000000330560    -0.000005030569
       5       -0.000024400226    -0.000006546489    -0.000005510532
       6        0.000006972420    -0.000009108983     0.000017460675
       7        0.004505425951     0.003295951401     0.000190399613
       8       -0.000005814685    -0.000007317514    -0.000004903989
       9       -0.000002782412    -0.000001927682     0.000001326472
      10       -0.000002371399     0.000000982990    -0.000000673570
      11        0.000004218430     0.000001569320     0.000002219861
      12       -0.000003410900     0.000003783865     0.000000009840
      13       -0.002128299897    -0.002349636651    -0.000063092425
      14       -0.000003670774     0.000035247368     0.000000336351
      15       -0.000008118692    -0.000012372200    -0.000016592382
      16        0.000013165645    -0.000013769287    -0.000002919636
      17       -0.000010988883     0.000008557813    -0.000001551443
      18        0.000002442304     0.000006712742    -0.000022202473

  **** Optimization is complete! (in 7 steps) ****
    Final optimized geometry and variables:
    Molecular point group: c1

    Geometry (in Angstrom), charge = 1, multiplicity = 1:

    C           -0.031021723592     0.002798165254    -0.178122354184
    C            0.004909894091     1.221792545972     0.521591651818
    C            0.020464822162     1.211416922267     1.913714125136
    C           -0.003044553824    -0.003750036395     2.604554946136
    C           -0.031375672068    -1.215875025111     1.907672178874
    C           -0.030400966323    -1.220179542354     0.515741693189
    C            0.006349746491     0.009648447572    -1.647343658302
    H            0.051027042257     2.163642963531    -0.018064605469
    H            0.060302601649     2.148964466879     2.458741497480
    H            0.003958910202    -0.006622367568     3.690182648169
    H           -0.056959679694    -2.156213806571     2.448761940748
    H           -0.073551800396    -2.159890340612    -0.027773196041
    N           -0.828659234612     0.793702430010    -2.319786443253
    N            0.844858596209    -0.797949371425    -2.286587743433
    H            0.848403230492    -0.908247035965    -3.294356136412
    H            1.549643417730    -1.300913524324    -1.762716067850
    H           -1.542011335829     1.307961085685    -1.818924597246
    H           -0.792894294946     0.909714023157    -3.326285879360

  Dipole Moment: [D]
     X:     0.0914      Y:     0.0436      Z:    -5.9121     Total:     5.9130

  Mulliken Charges: (a.u.)
   Center  Symbol    Alpha    Beta     Spin     Total
       1     C     2.96851  2.96851  0.00000  0.06298
       2     C     3.07822  3.07822  0.00000 -0.15644
       3     C     3.06205  3.06205  0.00000 -0.12409
       4     C     3.05202  3.05202  0.00000 -0.10403
       5     C     3.06302  3.06302  0.00000 -0.12604
       6     C     3.07941  3.07941  0.00000 -0.15881
       7     C     2.73030  2.73030  0.00000  0.53940
       8     H     0.41366  0.41366  0.00000  0.17267
       9     H     0.40588  0.40588  0.00000  0.18825
      10     H     0.40461  0.40461  0.00000  0.19078
      11     H     0.40587  0.40587  0.00000  0.18826
      12     H     0.41345  0.41345  0.00000  0.17309
      13     N     3.85679  3.85679  0.00000 -0.71358
      14     N     3.85820  3.85820  0.00000 -0.71639
      15     H     0.30550  0.30550  0.00000  0.38901
      16     H     0.29863  0.29863  0.00000  0.40275
      17     H     0.29826  0.29826  0.00000  0.40348
      18     H     0.30564  0.30564  0.00000  0.38873

   Total alpha = 32.00000, Total beta = 32.00000, Total charge =  1.00000

*** Psi4 exiting successfully. Buy a developer a beer!
