                               Psi4 1.2.1 release

  ==> Input File <==

--------------------------------------------------------------------------
set_num_threads(1)
set_memory('5348 MB')

set { scf_mem_safety_factor 0.7 }

set { reference rks }
set { basis cc-pVDZ }

molecule MOL {
    0 1
    noreorient
    nocom
    symmetry c1
    O    1.141000   0.017000   0.083000
    C    2.558000   0.086000  -0.005000
    C    3.192000  -0.789000   1.067000
    O    2.344605  -0.855267   2.207570
    H    0.789000   0.590000  -0.620000
    H    2.874000   1.128000   0.115000
    H    2.871000  -0.243000  -1.001000
    H    4.164150  -0.384176   1.365293
    H    3.356735  -1.802697   0.684692
    H    2.795629  -1.422926   2.856590
}

set optking { frozen_dihedral = (" 1 2 3 4 ") }

energy, wfn = energy('B3LYP-D3', return_wfn=True)

import os
os.chdir(os.environ['HTMD_PSI4_WORKDIR'])

oeprop(wfn, 'DIPOLE', 'QUADRUPOLE', 'MULLIKEN_CHARGES')

with open('psi4out.xyz', 'w') as f:
    f.write('10 ' )
    f.write('%.12f\n' % energy)
    f.write(MOL.save_string_xyz())
--------------------------------------------------------------------------

    Molecular point group: c1

    Geometry (in Angstrom), charge = 0, multiplicity = 1:

       Center              X                  Y                   Z               Mass
    ------------   -----------------  -----------------  -----------------  -----------------
         O            1.141000000000     0.017000000000     0.083000000000    15.994914619560
         C            2.558000000000     0.086000000000    -0.005000000000    12.000000000000
         C            3.192000000000    -0.789000000000     1.067000000000    12.000000000000
         O            2.344605000000    -0.855267000000     2.207570000000    15.994914619560
         H            0.789000000000     0.590000000000    -0.620000000000     1.007825032070
         H            2.874000000000     1.128000000000     0.115000000000     1.007825032070
         H            2.871000000000    -0.243000000000    -1.001000000000     1.007825032070
         H            4.164150000000    -0.384176000000     1.365293000000     1.007825032070
         H            3.356735000000    -1.802697000000     0.684692000000     1.007825032070
         H            2.795629000000    -1.422926000000     2.856590000000     1.007825032070

  Charge       = 0
  Multiplicity = 1
  Basis Set: CC-PVDZ
    Blend: CC-PVDZ
  Basis Set: (CC-PVDZ AUX)
    Blend: CC-PVDZ-JKFIT

    Orbital Energies [Eh]
    ---------------------

    Doubly Occupied:

       1A    -19.123013     2A    -19.122965     3A    -10.226546
       4A    -10.226362     5A     -1.016438     6A     -0.995320
       7A     -0.734008     8A     -0.600121     9A     -0.525380
      10A     -0.486271    11A     -0.452778    12A     -0.413820
      13A     -0.396500    14A     -0.331787    15A     -0.321753
      16A     -0.263678    17A     -0.249041

  @DF-RKS Final Energy:  -230.24888971070453

   => Energetics <=

    Nuclear Repulsion Energy =            132.8339634541703163
    One-Electron Energy =                -577.5623710347211954
    Two-Electron Energy =                 239.0219857185072101
    DFT Exchange-Correlation Energy =     -24.5383668886608639
    Empirical Dispersion Energy =          -0.0041009600000000
    VV10 Nonlocal Energy =                  0.0000000000000000
    Total Energy =                       -230.2488897107045318

  Dipole Moment: [D]
     X:     1.8895      Y:     0.1130      Z:    -1.0273     Total:     2.1536

  Mulliken Charges: (a.u.)
   Center  Symbol    Alpha    Beta     Spin     Total
       1     O     4.13049  4.13049  0.00000 -0.26097
       2     C     2.93474  2.93474  0.00000  0.13051
       3     C     2.93484  2.93484  0.00000  0.13033
       4     O     4.13073  4.13073  0.00000 -0.26145
       5     H     0.43113  0.43113  0.00000  0.13774
       6     H     0.50085  0.50085  0.00000 -0.00170
       7     H     0.50276  0.50276  0.00000 -0.00552
       8     H     0.50265  0.50265  0.00000 -0.00530
       9     H     0.50074  0.50074  0.00000 -0.00147
      10     H     0.43108  0.43108  0.00000  0.13784

   Total alpha = 17.00000, Total beta = 17.00000, Total charge = -0.00000

*** Psi4 exiting successfully. Buy a developer a beer!
