                               Psi4 1.2.1 release

  ==> Input File <==

--------------------------------------------------------------------------
set_num_threads(4)
set_memory('3000 MB')

set { scf_mem_safety_factor 0.7 }

set { reference rks }
set { basis 6-31G* }

molecule MOL {
    1 1
    noreorient
    nocom
    symmetry c1
    C   -0.000000  -0.000000  -0.177864
    C    0.036678   1.219374   0.524165
    C    0.031765   1.213120   1.915444
    C    0.000000   0.000000   2.610107
    C   -0.031765  -1.213120   1.915444
    C   -0.036678  -1.219375   0.524165
    C   -0.000000   0.000000  -1.644734
    H    0.018170   2.164705  -0.010854
    H    0.042402   2.152895   2.457886
    H    0.000000   0.000000   3.695756
    H   -0.042402  -2.152895   2.457886
    H   -0.018170  -2.164705  -0.010853
    N   -0.234187  -1.128577  -2.308461
    N    0.234187   1.128577  -2.308460
    H    0.154337   1.201113  -3.315997
    H    0.570662   1.943991  -1.813316
    H   -0.570662  -1.943991  -1.813317
    H   -0.154337  -1.201112  -3.315997
}

set optking { frozen_dihedral = (" 2 1 7 13 ") }

set optking { dynamic_level = 1
 geom_maxiter = 250
 print_trajectory_xyz_file = True }

energy, wfn = optimize('B3LYP-D3', return_wfn=True)

import os
os.chdir(os.environ['HTMD_PSI4_WORKDIR'])

oeprop(wfn, 'DIPOLE', 'QUADRUPOLE', 'MULLIKEN_CHARGES')

with open('psi4out.xyz', 'w') as f:
    f.write('18 ' )
    f.write('%.12f\n' % energy)
    f.write(MOL.save_string_xyz())
--------------------------------------------------------------------------

    Molecular point group: c1
  Charge       = 1
  Multiplicity = 1
  Basis Set: 6-31G*
    Blend: 6-31G*
  Basis Set: (6-31G* AUX)
    Blend: CC-PVDZ-JKFIT
  @DF-RKS Final Energy:  -381.46614215182893
    Total Energy =                       -381.4661421518289330
    Molecular point group: c1
  Basis Set: 6-31G*
    Blend: 6-31G*
  Basis Set: (6-31G* AUX)
    Blend: CC-PVDZ-JKFIT
  Basis Set: 6-31G*
    Blend: 6-31G*
  Basis Set: (6-31G* AUX)
    Blend: CC-PVDZ-JKFIT
  @DF-RKS Final Energy:  -381.46707736847094
    Total Energy =                       -381.4670773684709388
  Basis Set: 6-31G*
    Blend: 6-31G*
  Basis Set: (6-31G* AUX)
    Blend: CC-PVDZ-JKFIT
  Basis Set: 6-31G*
    Blend: 6-31G*
  @DF-RKS Final Energy:  -381.46750244279121
    Total Energy =                       -381.4675024427912149
  @DF-RKS Final Energy:  -381.46751755908730
    Total Energy =                       -381.4675175590873550
  @DF-RKS Final Energy:  -381.46752535705861
    Total Energy =                       -381.4675253570586051
  Basis Set: (6-31G* AUX)
    Blend: CC-PVDZ-JKFIT
  Basis Set: 6-31G*
    Blend: 6-31G*
  Basis Set: (6-31G* AUX)
    Blend: CC-PVDZ-JKFIT
  @DF-RKS Final Energy:  -381.46752667901876
    Total Energy =                       -381.4675266790187607
  Basis Set: 6-31G*
    Blend: 6-31G*
  Basis Set: (6-31G* AUX)
    Blend: CC-PVDZ-JKFIT
  Charge       = 1
  Multiplicity = 1
  Basis Set: 6-31G*
    Blend: 6-31G*
  Basis Set: (6-31G* AUX)
    Blend: CC-PVDZ-JKFIT

    Orbital Energies [Eh]
    ---------------------

    Doubly Occupied:

       1A    -14.565697     2A    -14.565363     3A    -10.497766
       4A    -10.376788     5A    -10.360041     6A    -10.359953
       7A    -10.346228     8A    -10.342682     9A    -10.342529
      10A     -1.183034    11A     -1.089410    12A     -1.016664
      13A     -0.928536    14A     -0.905247    15A     -0.847501
      16A     -0.786150    17A     -0.776127    18A     -0.737594
      19A     -0.736336    20A     -0.688109    21A     -0.669375
      22A     -0.630698    23A     -0.611334    24A     -0.597584
      25A     -0.581751    26A     -0.576302    27A     -0.518394
      28A     -0.509147    29A     -0.500636    30A     -0.471445
      31A     -0.413452    32A     -0.407821

  @DF-RKS Final Energy:  -381.46752677312850

   => Energetics <=

    Nuclear Repulsion Energy =            416.7439420809934063
    One-Electron Energy =               -1328.5953507656508918
    Two-Electron Energy =                 574.8026948073678568
    DFT Exchange-Correlation Energy =     -44.4072265558388395
    Empirical Dispersion Energy =          -0.0115863400000000
    VV10 Nonlocal Energy =                  0.0000000000000000
    Total Energy =                       -381.4675267731284976
    Molecular point group: c1
  Basis Set: 6-31G*
    Blend: 6-31G*
  Basis Set: (6-31G* AUX)
    Blend: CC-PVDZ-JKFIT

  -Total Gradient:
     Atom            X                  Y                   Z
    ------   -----------------  -----------------  -----------------
       1       -0.004873288094    -0.000225239249    -0.000145902033
       2        0.004866002201    -0.000196960625     0.000156347545
       3        0.000004395453     0.000001322289    -0.000011942589
       4        0.000002583526    -0.000008957818    -0.000004287787
       5        0.000016768899     0.000008445186     0.000005741151
       6       -0.000028745654     0.000002276817     0.000006449301
       7       -0.005053286643     0.001555206161    -0.000122688017
       8       -0.000006069741    -0.000000772988    -0.000005275385
       9       -0.000001252175     0.000001606122    -0.000003414870
      10       -0.000001128492     0.000001163360    -0.000000987316
      11       -0.000002226348    -0.000002095879    -0.000004267156
      12       -0.000001938702    -0.000001576348     0.000002780923
      13        0.005063233569    -0.001122444306     0.000121722622
      14        0.000030999031    -0.000014831533    -0.000010215653
      15       -0.000004443099     0.000002514897     0.000000584015
      16       -0.000009618527     0.000005328940     0.000010353698
      17        0.000000018488     0.000000893978    -0.000001055060
      18       -0.000004750734    -0.000002710729    -0.000000179693

  **** Optimization is complete! (in 7 steps) ****
    Final optimized geometry and variables:
    Molecular point group: c1

    Geometry (in Angstrom), charge = 1, multiplicity = 1:

    C           -0.071033965599     0.003897410487    -0.176304093753
    C           -0.037760594852     1.218295009737     0.538567642434
    C            0.003199279389     1.214188734600     1.927727782828
    C            0.022217615820     0.002369941507     2.624262956868
    C            0.006418727656    -1.208264081897     1.926311843799
    C           -0.028768107856    -1.211338437520     0.536594154040
    C           -0.033939377436     0.001994699758    -1.644185250790
    H           -0.109371622189     2.173894263332     0.027353916845
    H            0.012105821063     2.155470254505     2.467335490239
    H            0.054386453167     0.001796782870     3.709384131120
    H            0.039555830187    -2.150037542795     2.464149426171
    H            0.024767664825    -2.165527273751     0.021666722948
    N           -0.263169052420    -1.117954033657    -2.330270408462
    N            0.298563339848     1.102268061667    -2.317547144908
    H            0.286493907782     1.141770530968    -3.329292893676
    H            0.670666748310     1.910511261569    -1.839579918489
    H           -0.700816085635    -1.913536983942    -1.887070780661
    H           -0.173516582058    -1.159798597439    -3.338103576554

  Dipole Moment: [D]
     X:     0.0295      Y:     0.0050      Z:    -5.5172     Total:     5.5173

  Mulliken Charges: (a.u.)
   Center  Symbol    Alpha    Beta     Spin     Total
       1     C     2.93437  2.93437  0.00000  0.13126
       2     C     3.08874  3.08874  0.00000 -0.17748
       3     C     3.06166  3.06166  0.00000 -0.12332
       4     C     3.05128  3.05128  0.00000 -0.10256
       5     C     3.06108  3.06108  0.00000 -0.12215
       6     C     3.08494  3.08494  0.00000 -0.16988
       7     C     2.70845  2.70845  0.00000  0.58310
       8     H     0.41810  0.41810  0.00000  0.16380
       9     H     0.40500  0.40500  0.00000  0.19000
      10     H     0.40281  0.40281  0.00000  0.19437
      11     H     0.40497  0.40497  0.00000  0.19006
      12     H     0.41898  0.41898  0.00000  0.16204
      13     N     3.87293  3.87293  0.00000 -0.74587
      14     N     3.87288  3.87288  0.00000 -0.74576
      15     H     0.30595  0.30595  0.00000  0.38809
      16     H     0.30069  0.30069  0.00000  0.39861
      17     H     0.30110  0.30110  0.00000  0.39781
      18     H     0.30607  0.30607  0.00000  0.38786

   Total alpha = 32.00000, Total beta = 32.00000, Total charge =  1.00000

*** Psi4 exiting successfully. Buy a developer a beer!
