                               Psi4 1.2.1 release

  ==> Input File <==

--------------------------------------------------------------------------
set_num_threads(1)
set_memory('5348 MB')

set { scf_mem_safety_factor 0.7 }

set { reference rks }
set { basis cc-pVDZ }

molecule MOL {
    0 1
    noreorient
    nocom
    symmetry c1
    O    1.141000   0.017000   0.083000
    C    2.558000   0.086000  -0.005000
    C    3.192000  -0.789000   1.067000
    O    2.616270  -0.501592   2.335582
    H    0.789000   0.590000  -0.620000
    H    2.874000   1.128000   0.115000
    H    2.871000  -0.243000  -1.001000
    H    4.271290  -0.613522   1.114728
    H    3.037049  -1.848956   0.836001
    H    3.055361  -1.084874   2.978908
}

set optking { frozen_dihedral = (" 1 2 3 4 ") }

energy, wfn = energy('B3LYP-D3', return_wfn=True)

import os
os.chdir(os.environ['HTMD_PSI4_WORKDIR'])

oeprop(wfn, 'DIPOLE', 'QUADRUPOLE', 'MULLIKEN_CHARGES')

with open('psi4out.xyz', 'w') as f:
    f.write('10 ' )
    f.write('%.12f\n' % energy)
    f.write(MOL.save_string_xyz())
--------------------------------------------------------------------------

    Molecular point group: c1

    Geometry (in Angstrom), charge = 0, multiplicity = 1:

       Center              X                  Y                   Z               Mass
    ------------   -----------------  -----------------  -----------------  -----------------
         O            1.141000000000     0.017000000000     0.083000000000    15.994914619560
         C            2.558000000000     0.086000000000    -0.005000000000    12.000000000000
         C            3.192000000000    -0.789000000000     1.067000000000    12.000000000000
         O            2.616270000000    -0.501592000000     2.335582000000    15.994914619560
         H            0.789000000000     0.590000000000    -0.620000000000     1.007825032070
         H            2.874000000000     1.128000000000     0.115000000000     1.007825032070
         H            2.871000000000    -0.243000000000    -1.001000000000     1.007825032070
         H            4.271290000000    -0.613522000000     1.114728000000     1.007825032070
         H            3.037049000000    -1.848956000000     0.836001000000     1.007825032070
         H            3.055361000000    -1.084874000000     2.978908000000     1.007825032070

  Charge       = 0
  Multiplicity = 1
  Basis Set: CC-PVDZ
    Blend: CC-PVDZ
  Basis Set: (CC-PVDZ AUX)
    Blend: CC-PVDZ-JKFIT

    Orbital Energies [Eh]
    ---------------------

    Doubly Occupied:

       1A    -19.124195     2A    -19.124159     3A    -10.227315
       4A    -10.227128     5A     -1.016436     6A     -0.997674
       7A     -0.733944     8A     -0.601432     9A     -0.522194
      10A     -0.496074    11A     -0.443883    12A     -0.414989
      13A     -0.401282    14A     -0.337958    15A     -0.319210
      16A     -0.259049    17A     -0.257522

  @DF-RKS Final Energy:  -230.25406521461429

   => Energetics <=

    Nuclear Repulsion Energy =            132.1842958376932984
    One-Electron Energy =                -576.2371635388308277
    Two-Electron Energy =                 238.3393022167910260
    DFT Exchange-Correlation Energy =     -24.5362288502677970
    Empirical Dispersion Energy =          -0.0042708800000000
    VV10 Nonlocal Energy =                  0.0000000000000000
    Total Energy =                       -230.2540652146143145

  Dipole Moment: [D]
     X:     1.6979      Y:    -0.1865      Z:    -1.1586     Total:     2.0639

  Mulliken Charges: (a.u.)
   Center  Symbol    Alpha    Beta     Spin     Total
       1     O     4.13324  4.13324  0.00000 -0.26648
       2     C     2.93337  2.93337  0.00000  0.13326
       3     C     2.93347  2.93347  0.00000  0.13305
       4     O     4.13349  4.13349  0.00000 -0.26698
       5     H     0.43064  0.43064  0.00000  0.13871
       6     H     0.49937  0.49937  0.00000  0.00126
       7     H     0.50333  0.50333  0.00000 -0.00667
       8     H     0.50322  0.50322  0.00000 -0.00644
       9     H     0.49927  0.49927  0.00000  0.00146
      10     H     0.43059  0.43059  0.00000  0.13882

   Total alpha = 17.00000, Total beta = 17.00000, Total charge = -0.00000

*** Psi4 exiting successfully. Buy a developer a beer!
