                               Psi4 1.2.1 release

  ==> Input File <==

--------------------------------------------------------------------------
set_num_threads(1)
set_memory('5348 MB')

set { scf_mem_safety_factor 0.7 }

set { reference rks }
set { basis cc-pVDZ }

molecule MOL {
    0 1
    noreorient
    nocom
    symmetry c1
    O    1.014300  -0.002300   0.060500
    O    2.462400  -0.107500  -0.002400
    H    0.821200  -0.823600  -0.430600
    H    2.521140  -1.029891   0.311575
}

set optking { frozen_dihedral = (" 3 1 2 4 ") }

energy, wfn = energy('B3LYP-D3', return_wfn=True)

import os
os.chdir(os.environ['HTMD_PSI4_WORKDIR'])

oeprop(wfn, 'DIPOLE', 'QUADRUPOLE', 'MULLIKEN_CHARGES')

with open('psi4out.xyz', 'w') as f:
    f.write('4 ' )
    f.write('%.12f\n' % energy)
    f.write(MOL.save_string_xyz())
--------------------------------------------------------------------------

    Molecular point group: c1

    Geometry (in Angstrom), charge = 0, multiplicity = 1:

       Center              X                  Y                   Z               Mass
    ------------   -----------------  -----------------  -----------------  -----------------
         O            1.014300000000    -0.002300000000     0.060500000000    15.994914619560
         O            2.462400000000    -0.107500000000    -0.002400000000    15.994914619560
         H            0.821200000000    -0.823600000000    -0.430600000000     1.007825032070
         H            2.521140000000    -1.029891000000     0.311575000000     1.007825032070

  Charge       = 0
  Multiplicity = 1
  Basis Set: CC-PVDZ
    Blend: CC-PVDZ
  Basis Set: (CC-PVDZ AUX)
    Blend: CC-PVDZ-JKFIT

    Orbital Energies [Eh]
    ---------------------

    Doubly Occupied:

       1A    -19.191636     2A    -19.191600     3A     -1.119540
       4A     -0.887339     5A     -0.549161     6A     -0.441105
       7A     -0.426181     8A     -0.332683     9A     -0.261831

  @DF-RKS Final Energy:  -151.54151254845860

   => Energetics <=

    Nuclear Repulsion Energy =             36.8599324125386687
    One-Electron Energy =                -281.6167833286503424
    Two-Electron Energy =                 107.6774716119887785
    DFT Exchange-Correlation Energy =     -14.4619354443356904
    Empirical Dispersion Energy =          -0.0001978000000000
    VV10 Nonlocal Energy =                  0.0000000000000000
    Total Energy =                       -151.5415125484585701

  Dipole Moment: [D]
     X:    -0.2205      Y:    -2.8613      Z:    -0.2906     Total:     2.8845

  Mulliken Charges: (a.u.)
   Center  Symbol    Alpha    Beta     Spin     Total
       1     O     4.08225  4.08225  0.00000 -0.16451
       2     O     4.08223  4.08223  0.00000 -0.16447
       3     H     0.41775  0.41775  0.00000  0.16450
       4     H     0.41777  0.41777  0.00000  0.16447

   Total alpha =  9.00000, Total beta =  9.00000, Total charge = -0.00000

*** Psi4 exiting successfully. Buy a developer a beer!
