                               Psi4 1.2.1 release

  ==> Input File <==

--------------------------------------------------------------------------
set_num_threads(4)
set_memory('3000 MB')

set { scf_mem_safety_factor 0.7 }

set { reference rks }
set { basis 6-31G* }

molecule MOL {
    1 1
    noreorient
    nocom
    symmetry c1
    C   -0.000000  -0.000000  -0.177864
    C    0.036678   1.219374   0.524165
    C    0.031765   1.213120   1.915444
    C    0.000000   0.000000   2.610107
    C   -0.031765  -1.213120   1.915444
    C   -0.036678  -1.219375   0.524165
    C   -0.000000   0.000000  -1.644734
    H    0.018170   2.164705  -0.010854
    H    0.042402   2.152895   2.457886
    H    0.000000   0.000000   3.695756
    H   -0.042402  -2.152895   2.457886
    H   -0.018170  -2.164705  -0.010853
    N   -0.712590  -0.905950  -2.308461
    N    0.712590   0.905950  -2.308460
    H    0.673432   1.006470  -3.315997
    H    1.377190   1.485970  -1.813316
    H   -0.492601  -1.111470  -3.274199
    H   -1.439148  -1.461701  -1.872546
}

set optking { frozen_dihedral = (" 1 7 13 17 ") }

set optking { dynamic_level = 1
 geom_maxiter = 250
 print_trajectory_xyz_file = True }

energy, wfn = optimize('B3LYP-D3', return_wfn=True)

import os
os.chdir(os.environ['HTMD_PSI4_WORKDIR'])

oeprop(wfn, 'DIPOLE', 'QUADRUPOLE', 'MULLIKEN_CHARGES')

with open('psi4out.xyz', 'w') as f:
    f.write('18 ' )
    f.write('%.12f\n' % energy)
    f.write(MOL.save_string_xyz())
--------------------------------------------------------------------------

    Molecular point group: c1
  Charge       = 1
  Multiplicity = 1
  Basis Set: 6-31G*
    Blend: 6-31G*
  Basis Set: (6-31G* AUX)
    Blend: CC-PVDZ-JKFIT
  @DF-RKS Final Energy:  -381.46915362025521
    Total Energy =                       -381.4691536202552129
    Molecular point group: c1
  Basis Set: 6-31G*
    Blend: 6-31G*
  Basis Set: (6-31G* AUX)
    Blend: CC-PVDZ-JKFIT
  Basis Set: 6-31G*
    Blend: 6-31G*
  Basis Set: (6-31G* AUX)
    Blend: CC-PVDZ-JKFIT
  @DF-RKS Final Energy:  -381.46970224769996
    Total Energy =                       -381.4697022476999564
  Basis Set: 6-31G*
    Blend: 6-31G*
  Basis Set: (6-31G* AUX)
    Blend: CC-PVDZ-JKFIT
  Basis Set: 6-31G*
    Blend: 6-31G*
  @DF-RKS Final Energy:  -381.46982516017425
    Total Energy =                       -381.4698251601741958
  @DF-RKS Final Energy:  -381.46984352922249
    Total Energy =                       -381.4698435292224872
  Basis Set: (6-31G* AUX)
    Blend: CC-PVDZ-JKFIT
  Basis Set: 6-31G*
    Blend: 6-31G*
  Basis Set: (6-31G* AUX)
    Blend: CC-PVDZ-JKFIT
  @DF-RKS Final Energy:  -381.46984564754507
    Total Energy =                       -381.4698456475450712
  Basis Set: 6-31G*
    Blend: 6-31G*
  Basis Set: (6-31G* AUX)
    Blend: CC-PVDZ-JKFIT
  Charge       = 1
  Multiplicity = 1
  Basis Set: 6-31G*
    Blend: 6-31G*
  Basis Set: (6-31G* AUX)
    Blend: CC-PVDZ-JKFIT

    Orbital Energies [Eh]
    ---------------------

    Doubly Occupied:

       1A    -14.567677     2A    -14.566160     3A    -10.496513
       4A    -10.373490     5A    -10.357318     6A    -10.356764
       7A    -10.344188     8A    -10.341224     9A    -10.341110
      10A     -1.182850    11A     -1.090694    12A     -1.014882
      13A     -0.926897    14A     -0.902987    15A     -0.844966
      16A     -0.785285    17A     -0.772620    18A     -0.741854
      19A     -0.732770    20A     -0.688405    21A     -0.669924
      22A     -0.626500    23A     -0.616714    24A     -0.585529
      25A     -0.579949    26A     -0.572533    27A     -0.519279
      28A     -0.506188    29A     -0.498725    30A     -0.471951
      31A     -0.412892    32A     -0.406513

  @DF-RKS Final Energy:  -381.46984580794663

   => Energetics <=

    Nuclear Repulsion Energy =            416.8776254153397076
    One-Electron Energy =               -1328.9566582526313141
    Two-Electron Energy =                 575.0265552899288650
    DFT Exchange-Correlation Energy =     -44.4054225205838335
    Empirical Dispersion Energy =          -0.0119457400000000
    VV10 Nonlocal Energy =                  0.0000000000000000
    Total Energy =                       -381.4698458079465695
    Molecular point group: c1
  Basis Set: 6-31G*
    Blend: 6-31G*
  Basis Set: (6-31G* AUX)
    Blend: CC-PVDZ-JKFIT

  -Total Gradient:
     Atom            X                  Y                   Z
    ------   -----------------  -----------------  -----------------
       1        0.001819065244    -0.001446845693    -0.000072242802
       2        0.000017214355     0.000025638288     0.000021882184
       3       -0.000020934525    -0.000010702486     0.000000163977
       4        0.000011363593     0.000013921709     0.000007042475
       5        0.000004191054    -0.000011818625    -0.000020839744
       6        0.000011535604     0.000044521588     0.000015061617
       7       -0.001925282898     0.001131702072     0.000451234983
       8       -0.000008910770    -0.000010922415     0.000002707114
       9        0.000001078518    -0.000004820997    -0.000000375330
      10       -0.000002922493     0.000002259299    -0.000002751632
      11       -0.000009897418     0.000005968086    -0.000003044719
      12       -0.000008915050    -0.000015714972    -0.000013023599
      13       -0.002014223113     0.002650408714    -0.001412386617
      14        0.000033399479     0.000121406268    -0.000021083364
      15       -0.000018954624    -0.000022675064     0.000035302803
      16       -0.000007855399    -0.000026778286    -0.000029201183
      17        0.002154585388    -0.002444446865     0.001048093138
      18       -0.000037651948     0.000000671640    -0.000029414878

  **** Optimization is complete! (in 6 steps) ****
    Final optimized geometry and variables:
    Molecular point group: c1

    Geometry (in Angstrom), charge = 1, multiplicity = 1:

    C           -0.008998893162     0.006206293485    -0.180312597089
    C            0.035402167200     1.223707776644     0.525711127256
    C            0.036266301451     1.214078052134     1.916575626768
    C            0.000560219250    -0.001217778554     2.607813410764
    C           -0.040905917420    -1.212419337285     1.910190408057
    C           -0.051255902666    -1.214858486237     0.519088485080
    C           -0.005413901417     0.008104563805    -1.645465288959
    H            0.018912847699     2.170101143389    -0.007540367718
    H            0.053539003430     2.152036517461     2.461959024109
    H            0.004368811079    -0.004280466502     3.693474441789
    H           -0.055495378638    -2.153414533577     2.450391970070
    H           -0.040847311477    -2.159142552522    -0.017914929693
    N           -0.712728288225    -0.896035004127    -2.320785162906
    N            0.718184475988     0.906797292114    -2.307643227762
    H            0.666324419575     1.016250870887    -3.313745759502
    H            1.382866814163     1.486586226537    -1.812397512788
    H           -0.521445453438    -1.127091083114    -3.288783228348
    H           -1.360461013392    -1.496141494538    -1.827047419127

  Dipole Moment: [D]
     X:     0.2860      Y:    -0.1783      Z:    -5.5858     Total:     5.5960

  Mulliken Charges: (a.u.)
   Center  Symbol    Alpha    Beta     Spin     Total
       1     C     2.95569  2.95569  0.00000  0.08862
       2     C     3.08172  3.08172  0.00000 -0.16344
       3     C     3.06242  3.06242  0.00000 -0.12485
       4     C     3.05123  3.05123  0.00000 -0.10246
       5     C     3.06246  3.06246  0.00000 -0.12492
       6     C     3.08136  3.08136  0.00000 -0.16272
       7     C     2.72487  2.72487  0.00000  0.55027
       8     H     0.41373  0.41373  0.00000  0.17254
       9     H     0.40517  0.40517  0.00000  0.18965
      10     H     0.40357  0.40357  0.00000  0.19287
      11     H     0.40527  0.40527  0.00000  0.18946
      12     H     0.41531  0.41531  0.00000  0.16938
      13     N     3.86395  3.86395  0.00000 -0.72790
      14     N     3.86213  3.86213  0.00000 -0.72426
      15     H     0.30518  0.30518  0.00000  0.38964
      16     H     0.29997  0.29997  0.00000  0.40005
      17     H     0.30550  0.30550  0.00000  0.38899
      18     H     0.30046  0.30046  0.00000  0.39908

   Total alpha = 32.00000, Total beta = 32.00000, Total charge =  1.00000

*** Psi4 exiting successfully. Buy a developer a beer!
