                               Psi4 1.2.1 release

  ==> Input File <==

--------------------------------------------------------------------------
set_num_threads(4)
set_memory('3000 MB')

set { scf_mem_safety_factor 0.7 }

set { reference rks }
set { basis 6-31G* }

molecule MOL {
    1 1
    noreorient
    nocom
    symmetry c1
    C   -0.000000  -0.000000  -0.177864
    C    0.036678   1.219374   0.524165
    C    0.031765   1.213120   1.915444
    C    0.000000   0.000000   2.610107
    C   -0.031765  -1.213120   1.915444
    C   -0.036678  -1.219375   0.524165
    C   -0.000000   0.000000  -1.644734
    H    0.018170   2.164705  -0.010854
    H    0.042402   2.152895   2.457886
    H    0.000000   0.000000   3.695756
    H   -0.042402  -2.152895   2.457886
    H   -0.018170  -2.164705  -0.010853
    N   -0.546037   1.015073  -2.308460
    N    0.546037  -1.015073  -2.308461
    H    0.653831  -1.019311  -3.315997
    H    0.812421  -1.855998  -1.813317
    H   -0.812421   1.855999  -1.813316
    H   -0.653831   1.019312  -3.315996
}

set optking { frozen_dihedral = (" 2 1 7 13 ") }

set optking { dynamic_level = 1
 geom_maxiter = 250
 print_trajectory_xyz_file = True }

energy, wfn = optimize('B3LYP-D3', return_wfn=True)

import os
os.chdir(os.environ['HTMD_PSI4_WORKDIR'])

oeprop(wfn, 'DIPOLE', 'QUADRUPOLE', 'MULLIKEN_CHARGES')

with open('psi4out.xyz', 'w') as f:
    f.write('18 ' )
    f.write('%.12f\n' % energy)
    f.write(MOL.save_string_xyz())
--------------------------------------------------------------------------

    Molecular point group: c1
  Charge       = 1
  Multiplicity = 1
  Basis Set: 6-31G*
    Blend: 6-31G*
  Basis Set: (6-31G* AUX)
    Blend: CC-PVDZ-JKFIT
  @DF-RKS Final Energy:  -381.46465686618120
    Total Energy =                       -381.4646568661812012
    Molecular point group: c1
  Basis Set: 6-31G*
    Blend: 6-31G*
  Basis Set: (6-31G* AUX)
    Blend: CC-PVDZ-JKFIT
  Basis Set: 6-31G*
    Blend: 6-31G*
  Basis Set: (6-31G* AUX)
    Blend: CC-PVDZ-JKFIT
  @DF-RKS Final Energy:  -381.46812403502616
    Total Energy =                       -381.4681240350261078
  Basis Set: 6-31G*
    Blend: 6-31G*
  Basis Set: (6-31G* AUX)
    Blend: CC-PVDZ-JKFIT
  Basis Set: 6-31G*
    Blend: 6-31G*
  @DF-RKS Final Energy:  -381.46978769972469
    Total Energy =                       -381.4697876997246340
  @DF-RKS Final Energy:  -381.47025874842342
    Total Energy =                       -381.4702587484234186
  @DF-RKS Final Energy:  -381.47029776056070
    Total Energy =                       -381.4702977605606975
  @DF-RKS Final Energy:  -381.47031484827841
    Total Energy =                       -381.4703148482784627
  Basis Set: (6-31G* AUX)
    Blend: CC-PVDZ-JKFIT
  Basis Set: 6-31G*
    Blend: 6-31G*
  Basis Set: (6-31G* AUX)
    Blend: CC-PVDZ-JKFIT
  @DF-RKS Final Energy:  -381.47031597435313
    Total Energy =                       -381.4703159743530705
  Basis Set: 6-31G*
    Blend: 6-31G*
  Basis Set: (6-31G* AUX)
    Blend: CC-PVDZ-JKFIT
  Charge       = 1
  Multiplicity = 1
  Basis Set: 6-31G*
    Blend: 6-31G*
  Basis Set: (6-31G* AUX)
    Blend: CC-PVDZ-JKFIT

    Orbital Energies [Eh]
    ---------------------

    Doubly Occupied:

       1A    -14.567285     2A    -14.567236     3A    -10.496994
       4A    -10.373935     5A    -10.357123     6A    -10.356934
       7A    -10.343973     8A    -10.341073     9A    -10.341019
      10A     -1.183376    11A     -1.091131    12A     -1.014856
      13A     -0.927114    14A     -0.902969    15A     -0.845716
      16A     -0.785592    17A     -0.774156    18A     -0.740032
      19A     -0.733838    20A     -0.688825    21A     -0.669160
      22A     -0.626796    23A     -0.615889    24A     -0.588954
      25A     -0.579723    26A     -0.573554    27A     -0.518377
      28A     -0.506470    29A     -0.498732    30A     -0.472414
      31A     -0.412279    32A     -0.406373

  @DF-RKS Final Energy:  -381.47031618561107

   => Energetics <=

    Nuclear Repulsion Energy =            416.9102940695823918
    One-Electron Energy =               -1329.0095306118582812
    Two-Electron Energy =                 575.0469169513754650
    DFT Exchange-Correlation Energy =     -44.4061343147106271
    Empirical Dispersion Energy =          -0.0118622800000000
    VV10 Nonlocal Energy =                  0.0000000000000000
    Total Energy =                       -381.4703161856110682
    Molecular point group: c1
  Basis Set: 6-31G*
    Blend: 6-31G*
  Basis Set: (6-31G* AUX)
    Blend: CC-PVDZ-JKFIT

  -Total Gradient:
     Atom            X                  Y                   Z
    ------   -----------------  -----------------  -----------------
       1        0.002838864798     0.000302362908    -0.000040980695
       2       -0.001493636024     0.000041753462     0.000023723466
       3        0.000004223217     0.000007509170    -0.000009079129
       4       -0.000005477046     0.000002756145    -0.000005019572
       5       -0.000008256423    -0.000009409787    -0.000009803543
       6        0.000018737709    -0.000008156959     0.000016485208
       7       -0.002748496330    -0.001112853189     0.000038811652
       8        0.000002114799    -0.000004982132    -0.000005414827
       9       -0.000003505576    -0.000003450559     0.000004405795
      10        0.000003236274     0.000000083139     0.000000309703
      11        0.000001520969     0.000004048580     0.000003517984
      12        0.000003229202     0.000004703067    -0.000010708966
      13        0.001390737215     0.000759535228    -0.000012324903
      14       -0.000001261421     0.000021695300    -0.000005384457
      15       -0.000007370865     0.000000501543    -0.000007715732
      16        0.000011692104    -0.000014486772     0.000006492033
      17       -0.000014240756     0.000011868819     0.000000896982
      18        0.000007684705    -0.000000768529    -0.000011093246

  **** Optimization is complete! (in 8 steps) ****
    Final optimized geometry and variables:
    Molecular point group: c1

    Geometry (in Angstrom), charge = 1, multiplicity = 1:

    C            0.016430179227    -0.000419998959    -0.177288729753
    C            0.038317529431     1.218465976121     0.527468218669
    C            0.019767830488     1.212772528046     1.918194499017
    C           -0.032472431105     0.000447489956     2.613101555959
    C           -0.064943777180    -1.212162928071     1.917871214789
    C           -0.041355545247    -1.218374355056     0.527089047065
    C            0.016552959391    -0.002645467555    -1.643547642841
    H            0.128502303236     2.162434290780    -0.002466810516
    H            0.056265165082     2.151914975938     2.460571020576
    H           -0.049574902301     0.000909460326     3.698619335016
    H           -0.122201509452    -2.150803610754     2.459313006085
    H           -0.119732225530    -2.162241292971    -0.004942094236
    N           -0.540661538088     1.003024441839    -2.314006604842
    N            0.593597192100    -1.000403389815    -2.308848754839
    H            0.543438495436    -1.088464495811    -3.316896555133
    H            1.174476845588    -1.667674074398    -1.818729032727
    H           -1.132975669168     1.666449473077    -1.832424456287
    H           -0.483430901909     1.086771977307    -3.322076216003

  Dipole Moment: [D]
     X:     0.0223      Y:    -0.0182      Z:    -5.6648     Total:     5.6649

  Mulliken Charges: (a.u.)
   Center  Symbol    Alpha    Beta     Spin     Total
       1     C     2.95191  2.95191  0.00000  0.09618
       2     C     3.08373  3.08373  0.00000 -0.16745
       3     C     3.06247  3.06247  0.00000 -0.12494
       4     C     3.05134  3.05134  0.00000 -0.10268
       5     C     3.06216  3.06216  0.00000 -0.12431
       6     C     3.08329  3.08329  0.00000 -0.16659
       7     C     2.71800  2.71800  0.00000  0.56400
       8     H     0.41465  0.41465  0.00000  0.17070
       9     H     0.40529  0.40529  0.00000  0.18942
      10     H     0.40358  0.40358  0.00000  0.19284
      11     H     0.40529  0.40529  0.00000  0.18943
      12     H     0.41486  0.41486  0.00000  0.17027
      13     N     3.86617  3.86617  0.00000 -0.73234
      14     N     3.86541  3.86541  0.00000 -0.73083
      15     H     0.30577  0.30577  0.00000  0.38845
      16     H     0.30002  0.30002  0.00000  0.39997
      17     H     0.30029  0.30029  0.00000  0.39942
      18     H     0.30577  0.30577  0.00000  0.38846

   Total alpha = 32.00000, Total beta = 32.00000, Total charge =  1.00000

*** Psi4 exiting successfully. Buy a developer a beer!
