                               Psi4 1.2.1 release

  ==> Input File <==

--------------------------------------------------------------------------
set_num_threads(4)
set_memory('3000 MB')

set { scf_mem_safety_factor 0.7 }

set { reference rks }
set { basis 6-31G* }

molecule MOL {
    1 1
    noreorient
    nocom
    symmetry c1
    C   -0.000000  -0.000000  -0.177864
    C    0.036678   1.219374   0.524165
    C    0.031765   1.213120   1.915444
    C    0.000000   0.000000   2.610107
    C   -0.031765  -1.213120   1.915444
    C   -0.036678  -1.219375   0.524165
    C   -0.000000   0.000000  -1.644734
    H    0.018170   2.164705  -0.010854
    H    0.042402   2.152895   2.457886
    H    0.000000   0.000000   3.695756
    H   -0.042402  -2.152895   2.457886
    H   -0.018170  -2.164705  -0.010853
    N   -0.980419   0.606060  -2.308460
    N    0.980419  -0.606060  -2.308461
    H    1.075890  -0.555834  -3.315997
    H    1.631576  -1.201131  -1.813317
    H   -1.631576   1.201132  -1.813316
    H   -1.075890   0.555834  -3.315997
}

set optking { frozen_dihedral = (" 2 1 7 13 ") }

set optking { dynamic_level = 1
 geom_maxiter = 250
 print_trajectory_xyz_file = True }

energy, wfn = optimize('B3LYP-D3', return_wfn=True)

import os
os.chdir(os.environ['HTMD_PSI4_WORKDIR'])

oeprop(wfn, 'DIPOLE', 'QUADRUPOLE', 'MULLIKEN_CHARGES')

with open('psi4out.xyz', 'w') as f:
    f.write('18 ' )
    f.write('%.12f\n' % energy)
    f.write(MOL.save_string_xyz())
--------------------------------------------------------------------------

    Molecular point group: c1
  Charge       = 1
  Multiplicity = 1
  Basis Set: 6-31G*
    Blend: 6-31G*
  Basis Set: (6-31G* AUX)
    Blend: CC-PVDZ-JKFIT
  @DF-RKS Final Energy:  -381.46389332108618
    Total Energy =                       -381.4638933210861751
    Molecular point group: c1
  Basis Set: 6-31G*
    Blend: 6-31G*
  Basis Set: (6-31G* AUX)
    Blend: CC-PVDZ-JKFIT
  Basis Set: 6-31G*
    Blend: 6-31G*
  Basis Set: (6-31G* AUX)
    Blend: CC-PVDZ-JKFIT
  @DF-RKS Final Energy:  -381.46710938947359
    Total Energy =                       -381.4671093894735918
  Basis Set: 6-31G*
    Blend: 6-31G*
  Basis Set: (6-31G* AUX)
    Blend: CC-PVDZ-JKFIT
  Basis Set: 6-31G*
    Blend: 6-31G*
  @DF-RKS Final Energy:  -381.46800649708638
    Total Energy =                       -381.4680064970863782
  @DF-RKS Final Energy:  -381.46812547327846
    Total Energy =                       -381.4681254732784055
  @DF-RKS Final Energy:  -381.46813422975401
    Total Energy =                       -381.4681342297540141
  Basis Set: (6-31G* AUX)
    Blend: CC-PVDZ-JKFIT
  Basis Set: 6-31G*
    Blend: 6-31G*
  Basis Set: (6-31G* AUX)
    Blend: CC-PVDZ-JKFIT
  @DF-RKS Final Energy:  -381.46813636573529
    Total Energy =                       -381.4681363657352904
  Basis Set: 6-31G*
    Blend: 6-31G*
  Basis Set: (6-31G* AUX)
    Blend: CC-PVDZ-JKFIT
  Charge       = 1
  Multiplicity = 1
  Basis Set: 6-31G*
    Blend: 6-31G*
  Basis Set: (6-31G* AUX)
    Blend: CC-PVDZ-JKFIT

    Orbital Energies [Eh]
    ---------------------

    Doubly Occupied:

       1A    -14.571980     2A    -14.571913     3A    -10.499459
       4A    -10.370396     5A    -10.352701     6A    -10.352171
       7A    -10.338256     8A    -10.337142     9A    -10.336977
      10A     -1.186825    11A     -1.095775    12A     -1.011590
      13A     -0.924315    14A     -0.898653    15A     -0.844958
      16A     -0.786722    17A     -0.769603    18A     -0.748608
      19A     -0.729956    20A     -0.689657    21A     -0.668205
      22A     -0.621298    23A     -0.620267    24A     -0.580943
      25A     -0.575997    26A     -0.570001    27A     -0.517379
      28A     -0.500972    29A     -0.494841    30A     -0.476070
      31A     -0.408402    32A     -0.402129

  @DF-RKS Final Energy:  -381.46813653703066

   => Energetics <=

    Nuclear Repulsion Energy =            416.7170280829301987
    One-Electron Energy =               -1328.7148291728617551
    Two-Electron Energy =                 574.9465494075103607
    DFT Exchange-Correlation Energy =     -44.4049700246094687
    Empirical Dispersion Energy =          -0.0119148300000000
    VV10 Nonlocal Energy =                  0.0000000000000000
    Total Energy =                       -381.4681365370306594
    Molecular point group: c1
  Basis Set: 6-31G*
    Blend: 6-31G*
  Basis Set: (6-31G* AUX)
    Blend: CC-PVDZ-JKFIT

  -Total Gradient:
     Atom            X                  Y                   Z
    ------   -----------------  -----------------  -----------------
       1       -0.007611469006    -0.001403249871    -0.000260586785
       2        0.004411808052    -0.000216727208     0.000137139993
       3        0.000019093989     0.000003319511    -0.000001496134
       4        0.000003215432    -0.000000383697    -0.000001590401
       5       -0.000019372533    -0.000004762760    -0.000000814085
       6        0.000010340572    -0.000002168877     0.000000860807
       7        0.005729810668     0.005537872282     0.000232997921
       8       -0.000004235869    -0.000003017915     0.000000643481
       9       -0.000002959254    -0.000001221356     0.000002151068
      10        0.000000346527     0.000000239536     0.000000307124
      11        0.000004449444     0.000000367098     0.000001176703
      12       -0.000001542346     0.000001740719     0.000001822319
      13       -0.002537375726    -0.003933732496    -0.000090134986
      14       -0.000005058813     0.000038667179     0.000007542758
      15       -0.000007363892    -0.000009956243    -0.000008691966
      16        0.000008502772    -0.000008852089    -0.000002144860
      17       -0.000005813392     0.000003127762    -0.000002082748
      18       -0.000003492498     0.000006822532    -0.000014825834

  **** Optimization is complete! (in 7 steps) ****
    Final optimized geometry and variables:
    Molecular point group: c1

    Geometry (in Angstrom), charge = 1, multiplicity = 1:

    C           -0.049374077846     0.007002056063    -0.177287735580
    C           -0.008950529868     1.225033288069     0.521376129381
    C            0.022971458627     1.211551442699     1.913935332816
    C            0.015392370363    -0.004972431275     2.602147987628
    C           -0.010636681244    -1.215836420045     1.903191358280
    C           -0.023324673126    -1.217816359290     0.510742925252
    C           -0.005015569277     0.016049393894    -1.650015763419
    H            0.015252751018     2.167357790058    -0.018867824313
    H            0.062125797963     2.148344924986     2.460370139052
    H            0.034831602606    -0.010086818382     3.687607660479
    H           -0.019271664873    -2.157572732027     2.442468489123
    H           -0.050888002467    -2.155586009878    -0.037058707958
    N           -0.956103766400     0.647669186324    -2.326009282344
    N            0.950213836214    -0.659076559485    -2.275986981516
    H            0.985228533157    -0.770007130724    -3.283451579492
    H            1.705853688939    -1.063159171882    -1.737169302886
    H           -1.723544661799     1.072674261694    -1.820931541117
    H           -0.944760411988     0.758431289201    -3.334061303386

  Dipole Moment: [D]
     X:     0.0854      Y:     0.0588      Z:    -6.0851     Total:     6.0860

  Mulliken Charges: (a.u.)
   Center  Symbol    Alpha    Beta     Spin     Total
       1     C     2.97728  2.97728  0.00000  0.04545
       2     C     3.07524  3.07524  0.00000 -0.15049
       3     C     3.06177  3.06177  0.00000 -0.12354
       4     C     3.05254  3.05254  0.00000 -0.10509
       5     C     3.06321  3.06321  0.00000 -0.12641
       6     C     3.07714  3.07714  0.00000 -0.15428
       7     C     2.73650  2.73650  0.00000  0.52701
       8     H     0.41341  0.41341  0.00000  0.17317
       9     H     0.40631  0.40631  0.00000  0.18738
      10     H     0.40525  0.40525  0.00000  0.18950
      11     H     0.40629  0.40629  0.00000  0.18741
      12     H     0.41332  0.41332  0.00000  0.17336
      13     N     3.85217  3.85217  0.00000 -0.70435
      14     N     3.85375  3.85375  0.00000 -0.70750
      15     H     0.30534  0.30534  0.00000  0.38931
      16     H     0.29767  0.29767  0.00000  0.40465
      17     H     0.29723  0.29723  0.00000  0.40554
      18     H     0.30556  0.30556  0.00000  0.38888

   Total alpha = 32.00000, Total beta = 32.00000, Total charge =  1.00000

*** Psi4 exiting successfully. Buy a developer a beer!
