                               Psi4 1.2.1 release

  ==> Input File <==

--------------------------------------------------------------------------
set_num_threads(1)
set_memory('5348 MB')

set { scf_mem_safety_factor 0.7 }

set { reference rks }
set { basis cc-pVDZ }

molecule MOL {
    0 1
    noreorient
    nocom
    symmetry c1
    O    1.141000   0.017000   0.083000
    C    2.558000   0.086000  -0.005000
    C    3.192000  -0.789000   1.067000
    O    2.613215  -2.088143   1.042397
    H    0.789000   0.590000  -0.620000
    H    2.874000   1.128000   0.115000
    H    2.871000  -0.243000  -1.001000
    H    3.042742  -0.348393   2.057719
    H    4.271657  -0.875457   0.900433
    H    3.052150  -2.601525   1.742869
}

set optking { frozen_dihedral = (" 1 2 3 4 ") }

energy, wfn = energy('B3LYP-D3', return_wfn=True)

import os
os.chdir(os.environ['HTMD_PSI4_WORKDIR'])

oeprop(wfn, 'DIPOLE', 'QUADRUPOLE', 'MULLIKEN_CHARGES')

with open('psi4out.xyz', 'w') as f:
    f.write('10 ' )
    f.write('%.12f\n' % energy)
    f.write(MOL.save_string_xyz())
--------------------------------------------------------------------------

    Molecular point group: c1

    Geometry (in Angstrom), charge = 0, multiplicity = 1:

       Center              X                  Y                   Z               Mass
    ------------   -----------------  -----------------  -----------------  -----------------
         O            1.141000000000     0.017000000000     0.083000000000    15.994914619560
         C            2.558000000000     0.086000000000    -0.005000000000    12.000000000000
         C            3.192000000000    -0.789000000000     1.067000000000    12.000000000000
         O            2.613215000000    -2.088143000000     1.042397000000    15.994914619560
         H            0.789000000000     0.590000000000    -0.620000000000     1.007825032070
         H            2.874000000000     1.128000000000     0.115000000000     1.007825032070
         H            2.871000000000    -0.243000000000    -1.001000000000     1.007825032070
         H            3.042742000000    -0.348393000000     2.057719000000     1.007825032070
         H            4.271657000000    -0.875457000000     0.900433000000     1.007825032070
         H            3.052150000000    -2.601525000000     1.742869000000     1.007825032070

  Charge       = 0
  Multiplicity = 1
  Basis Set: CC-PVDZ
    Blend: CC-PVDZ
  Basis Set: (CC-PVDZ AUX)
    Blend: CC-PVDZ-JKFIT

    Orbital Energies [Eh]
    ---------------------

    Doubly Occupied:

       1A    -19.124201     2A    -19.124164     3A    -10.227316
       4A    -10.227125     5A     -1.016442     6A     -0.997678
       7A     -0.733936     8A     -0.601437     9A     -0.522113
      10A     -0.496235    11A     -0.443731    12A     -0.415004
      13A     -0.401352    14A     -0.337970    15A     -0.319197
      16A     -0.259049    17A     -0.257534

  @DF-RKS Final Energy:  -230.25405400196695

   => Energetics <=

    Nuclear Repulsion Energy =            132.1838399051091244
    One-Electron Energy =                -576.2362025242673553
    Two-Electron Energy =                 238.3388230561729415
    DFT Exchange-Correlation Energy =     -24.5362438989817058
    Empirical Dispersion Energy =          -0.0042705400000000
    VV10 Nonlocal Energy =                  0.0000000000000000
    Total Energy =                       -230.2540540019669493

  Dipole Moment: [D]
     X:     1.6986      Y:     1.1667      Z:    -0.0543     Total:     2.0614

  Mulliken Charges: (a.u.)
   Center  Symbol    Alpha    Beta     Spin     Total
       1     O     4.13327  4.13327  0.00000 -0.26654
       2     C     2.93334  2.93334  0.00000  0.13331
       3     C     2.93350  2.93350  0.00000  0.13300
       4     O     4.13349  4.13349  0.00000 -0.26697
       5     H     0.43064  0.43064  0.00000  0.13873
       6     H     0.50330  0.50330  0.00000 -0.00660
       7     H     0.49940  0.49940  0.00000  0.00120
       8     H     0.49928  0.49928  0.00000  0.00143
       9     H     0.50320  0.50320  0.00000 -0.00640
      10     H     0.43058  0.43058  0.00000  0.13884

   Total alpha = 17.00000, Total beta = 17.00000, Total charge =  0.00000

*** Psi4 exiting successfully. Buy a developer a beer!
