                               Psi4 1.2.1 release

  ==> Input File <==

--------------------------------------------------------------------------
set_num_threads(1)
set_memory('5348 MB')

set { scf_mem_safety_factor 0.7 }

set { reference rks }
set { basis cc-pVDZ }

molecule MOL {
    0 1
    noreorient
    nocom
    symmetry c1
    O    1.050400   0.042900  -0.048100
    C    2.474100   0.047400  -0.029000
    C    3.002600  -1.068900  -0.932000
    N    4.462700  -1.072400  -1.006800
    H    0.760400   0.728400   0.578000
    H    2.809900  -0.097900   1.003200
    H    2.817400   1.026800  -0.378600
    H    2.581000  -0.963300  -1.938400
    H    2.653800  -2.036400  -0.553400
    H    4.753736  -0.774034  -1.937261
    H    4.794074  -2.031629  -0.905206
}

set optking { frozen_dihedral = (" 2 3 4 10 ") }

energy, wfn = energy('B3LYP-D3', return_wfn=True)

import os
os.chdir(os.environ['HTMD_PSI4_WORKDIR'])

oeprop(wfn, 'DIPOLE', 'QUADRUPOLE', 'MULLIKEN_CHARGES')

with open('psi4out.xyz', 'w') as f:
    f.write('11 ' )
    f.write('%.12f\n' % energy)
    f.write(MOL.save_string_xyz())
--------------------------------------------------------------------------

    Molecular point group: c1

    Geometry (in Angstrom), charge = 0, multiplicity = 1:

       Center              X                  Y                   Z               Mass
    ------------   -----------------  -----------------  -----------------  -----------------
         O            1.050400000000     0.042900000000    -0.048100000000    15.994914619560
         C            2.474100000000     0.047400000000    -0.029000000000    12.000000000000
         C            3.002600000000    -1.068900000000    -0.932000000000    12.000000000000
         N            4.462700000000    -1.072400000000    -1.006800000000    14.003074004780
         H            0.760400000000     0.728400000000     0.578000000000     1.007825032070
         H            2.809900000000    -0.097900000000     1.003200000000     1.007825032070
         H            2.817400000000     1.026800000000    -0.378600000000     1.007825032070
         H            2.581000000000    -0.963300000000    -1.938400000000     1.007825032070
         H            2.653800000000    -2.036400000000    -0.553400000000     1.007825032070
         H            4.753736000000    -0.774034000000    -1.937261000000     1.007825032070
         H            4.794074000000    -2.031629000000    -0.905206000000     1.007825032070

  Charge       = 0
  Multiplicity = 1
  Basis Set: CC-PVDZ
    Blend: CC-PVDZ
  Basis Set: (CC-PVDZ AUX)
    Blend: CC-PVDZ-JKFIT

    Orbital Energies [Eh]
    ---------------------

    Doubly Occupied:

       1A    -19.122609     2A    -14.306060     3A    -10.216513
       4A    -10.201621     5A     -1.005049     6A     -0.876992
       7A     -0.709996     8A     -0.591730     9A     -0.501854
      10A     -0.496327    11A     -0.435701    12A     -0.425758
      13A     -0.392915    14A     -0.346131    15A     -0.324133
      16A     -0.256182    17A     -0.235311

  @DF-RKS Final Energy:  -210.39003793813831

   => Energetics <=

    Nuclear Repulsion Energy =            130.2492210534326489
    One-Electron Energy =                -543.5066891338386768
    Two-Electron Energy =                 226.3591994806757270
    DFT Exchange-Correlation Energy =     -23.4870835584079529
    Empirical Dispersion Energy =          -0.0046857800000000
    VV10 Nonlocal Energy =                  0.0000000000000000
    Total Energy =                       -210.3900379381382777

  Dipole Moment: [D]
     X:     0.5946      Y:     0.0138      Z:    -0.1600     Total:     0.6159

  Mulliken Charges: (a.u.)
   Center  Symbol    Alpha    Beta     Spin     Total
       1     O     4.14136  4.14136  0.00000 -0.28271
       2     C     2.92058  2.92058  0.00000  0.15883
       3     C     2.99779  2.99779  0.00000  0.00443
       4     N     3.58773  3.58773  0.00000 -0.17545
       5     H     0.43026  0.43026  0.00000  0.13948
       6     H     0.50215  0.50215  0.00000 -0.00431
       7     H     0.50385  0.50385  0.00000 -0.00770
       8     H     0.49608  0.49608  0.00000  0.00784
       9     H     0.49326  0.49326  0.00000  0.01348
      10     H     0.46362  0.46362  0.00000  0.07275
      11     H     0.46332  0.46332  0.00000  0.07336

   Total alpha = 17.00000, Total beta = 17.00000, Total charge = -0.00000

*** Psi4 exiting successfully. Buy a developer a beer!
