                               Psi4 1.2.1 release

  ==> Input File <==

--------------------------------------------------------------------------
set_num_threads(1)
set_memory('5348 MB')

set { scf_mem_safety_factor 0.7 }

set { reference rks }
set { basis cc-pVDZ }

molecule MOL {
    0 1
    noreorient
    nocom
    symmetry c1
    O    1.050400   0.042900  -0.048100
    C    2.474100   0.047400  -0.029000
    C    3.002600  -1.068900  -0.932000
    N    3.181566  -2.325859  -0.207069
    H    0.760400   0.728400   0.578000
    H    2.809900  -0.097900   1.003200
    H    2.817400   1.026800  -0.378600
    H    3.954103  -0.763019  -1.382353
    H    2.305271  -1.222649  -1.763354
    H    3.918514  -2.212501   0.488301
    H    3.519084  -3.034788  -0.858031
}

set optking { frozen_dihedral = (" 1 2 3 4 ") }

energy, wfn = energy('B3LYP-D3', return_wfn=True)

import os
os.chdir(os.environ['HTMD_PSI4_WORKDIR'])

oeprop(wfn, 'DIPOLE', 'QUADRUPOLE', 'MULLIKEN_CHARGES')

with open('psi4out.xyz', 'w') as f:
    f.write('11 ' )
    f.write('%.12f\n' % energy)
    f.write(MOL.save_string_xyz())
--------------------------------------------------------------------------

    Molecular point group: c1

    Geometry (in Angstrom), charge = 0, multiplicity = 1:

       Center              X                  Y                   Z               Mass
    ------------   -----------------  -----------------  -----------------  -----------------
         O            1.050400000000     0.042900000000    -0.048100000000    15.994914619560
         C            2.474100000000     0.047400000000    -0.029000000000    12.000000000000
         C            3.002600000000    -1.068900000000    -0.932000000000    12.000000000000
         N            3.181566000000    -2.325859000000    -0.207069000000    14.003074004780
         H            0.760400000000     0.728400000000     0.578000000000     1.007825032070
         H            2.809900000000    -0.097900000000     1.003200000000     1.007825032070
         H            2.817400000000     1.026800000000    -0.378600000000     1.007825032070
         H            3.954103000000    -0.763019000000    -1.382353000000     1.007825032070
         H            2.305271000000    -1.222649000000    -1.763354000000     1.007825032070
         H            3.918514000000    -2.212501000000     0.488301000000     1.007825032070
         H            3.519084000000    -3.034788000000    -0.858031000000     1.007825032070

  Charge       = 0
  Multiplicity = 1
  Basis Set: CC-PVDZ
    Blend: CC-PVDZ
  Basis Set: (CC-PVDZ AUX)
    Blend: CC-PVDZ-JKFIT

    Orbital Energies [Eh]
    ---------------------

    Doubly Occupied:

       1A    -19.122346     2A    -14.300144     3A    -10.224143
       4A    -10.202181     5A     -1.005703     6A     -0.873421
       7A     -0.713320     8A     -0.596587     9A     -0.507234
      10A     -0.482531    11A     -0.455680    12A     -0.400901
      13A     -0.388520    14A     -0.372550    15A     -0.320682
      16A     -0.257730    17A     -0.226352

  @DF-RKS Final Energy:  -210.38766140576706

   => Energetics <=

    Nuclear Repulsion Energy =            131.6769489059531679
    One-Electron Energy =                -546.3466862714876697
    Two-Electron Energy =                 227.7741695892444795
    DFT Exchange-Correlation Energy =     -23.4872638194770431
    Empirical Dispersion Energy =          -0.0048298100000000
    VV10 Nonlocal Energy =                  0.0000000000000000
    Total Energy =                       -210.3876614057670622

  Dipole Moment: [D]
     X:     1.8741      Y:     1.0736      Z:     0.3705     Total:     2.1914

  Mulliken Charges: (a.u.)
   Center  Symbol    Alpha    Beta     Spin     Total
       1     O     4.13739  4.13739  0.00000 -0.27478
       2     C     2.92289  2.92289  0.00000  0.15423
       3     C     2.97898  2.97898  0.00000  0.04203
       4     N     3.59003  3.59003  0.00000 -0.18006
       5     H     0.43266  0.43266  0.00000  0.13469
       6     H     0.50433  0.50433  0.00000 -0.00867
       7     H     0.50516  0.50516  0.00000 -0.01031
       8     H     0.50799  0.50799  0.00000 -0.01599
       9     H     0.48700  0.48700  0.00000  0.02601
      10     H     0.46725  0.46725  0.00000  0.06550
      11     H     0.46632  0.46632  0.00000  0.06735

   Total alpha = 17.00000, Total beta = 17.00000, Total charge = -0.00000

*** Psi4 exiting successfully. Buy a developer a beer!
