                               Psi4 1.2.1 release

  ==> Input File <==

--------------------------------------------------------------------------
set_num_threads(1)
set_memory('5348 MB')

set { scf_mem_safety_factor 0.7 }

set { reference rks }
set { basis cc-pVDZ }

molecule MOL {
    0 1
    noreorient
    nocom
    symmetry c1
    O    1.050400   0.042900  -0.048100
    C    2.474100   0.047400  -0.029000
    C    3.002600  -1.068900  -0.932000
    N    4.462700  -1.072400  -1.006800
    H    0.758781   0.519804   0.747847
    H    2.809900  -0.097900   1.003200
    H    2.817400   1.026800  -0.378600
    H    2.581000  -0.963300  -1.938400
    H    2.653800  -2.036400  -0.553400
    H    4.779000  -0.221000  -1.470000
    H    4.758600  -1.842500  -1.606500
}

set optking { frozen_dihedral = (" 3 2 1 5 ") }

energy, wfn = energy('B3LYP-D3', return_wfn=True)

import os
os.chdir(os.environ['HTMD_PSI4_WORKDIR'])

oeprop(wfn, 'DIPOLE', 'QUADRUPOLE', 'MULLIKEN_CHARGES')

with open('psi4out.xyz', 'w') as f:
    f.write('11 ' )
    f.write('%.12f\n' % energy)
    f.write(MOL.save_string_xyz())
--------------------------------------------------------------------------

    Molecular point group: c1

    Geometry (in Angstrom), charge = 0, multiplicity = 1:

       Center              X                  Y                   Z               Mass
    ------------   -----------------  -----------------  -----------------  -----------------
         O            1.050400000000     0.042900000000    -0.048100000000    15.994914619560
         C            2.474100000000     0.047400000000    -0.029000000000    12.000000000000
         C            3.002600000000    -1.068900000000    -0.932000000000    12.000000000000
         N            4.462700000000    -1.072400000000    -1.006800000000    14.003074004780
         H            0.758781000000     0.519804000000     0.747847000000     1.007825032070
         H            2.809900000000    -0.097900000000     1.003200000000     1.007825032070
         H            2.817400000000     1.026800000000    -0.378600000000     1.007825032070
         H            2.581000000000    -0.963300000000    -1.938400000000     1.007825032070
         H            2.653800000000    -2.036400000000    -0.553400000000     1.007825032070
         H            4.779000000000    -0.221000000000    -1.470000000000     1.007825032070
         H            4.758600000000    -1.842500000000    -1.606500000000     1.007825032070

  Charge       = 0
  Multiplicity = 1
  Basis Set: CC-PVDZ
    Blend: CC-PVDZ
  Basis Set: (CC-PVDZ AUX)
    Blend: CC-PVDZ-JKFIT

    Orbital Energies [Eh]
    ---------------------

    Doubly Occupied:

       1A    -19.127128     2A    -14.304583     3A    -10.223861
       4A    -10.201320     5A     -1.009545     6A     -0.876475
       7A     -0.711888     8A     -0.597251     9A     -0.506953
      10A     -0.485794    11A     -0.450837    12A     -0.419596
      13A     -0.387858    14A     -0.361731    15A     -0.323700
      16A     -0.261276    17A     -0.230726

  @DF-RKS Final Energy:  -210.39117704737572

   => Energetics <=

    Nuclear Repulsion Energy =            130.4233881209623860
    One-Electron Energy =                -543.7859400344721053
    Two-Electron Energy =                 226.4627862464602117
    DFT Exchange-Correlation Energy =     -23.4864929603262063
    Empirical Dispersion Energy =          -0.0049184200000000
    VV10 Nonlocal Energy =                  0.0000000000000000
    Total Energy =                       -210.3911770473757201

  Dipole Moment: [D]
     X:     0.4514      Y:     0.6617      Z:    -0.0802     Total:     0.8050

  Mulliken Charges: (a.u.)
   Center  Symbol    Alpha    Beta     Spin     Total
       1     O     4.13942  4.13942  0.00000 -0.27884
       2     C     2.92995  2.92995  0.00000  0.14009
       3     C     2.98457  2.98457  0.00000  0.03086
       4     N     3.59382  3.59382  0.00000 -0.18765
       5     H     0.42947  0.42947  0.00000  0.14106
       6     H     0.49826  0.49826  0.00000  0.00348
       7     H     0.50365  0.50365  0.00000 -0.00731
       8     H     0.50046  0.50046  0.00000 -0.00091
       9     H     0.49121  0.49121  0.00000  0.01758
      10     H     0.46570  0.46570  0.00000  0.06859
      11     H     0.46347  0.46347  0.00000  0.07305

   Total alpha = 17.00000, Total beta = 17.00000, Total charge =  0.00000

*** Psi4 exiting successfully. Buy a developer a beer!
