                               Psi4 1.2.1 release

  ==> Input File <==

--------------------------------------------------------------------------
set_num_threads(1)
set_memory('5348 MB')

set { scf_mem_safety_factor 0.7 }

set { reference rks }
set { basis cc-pVDZ }

molecule MOL {
    0 1
    noreorient
    nocom
    symmetry c1
    O    1.050400   0.042900  -0.048100
    C    2.474100   0.047400  -0.029000
    C    3.002600  -1.068900  -0.932000
    N    1.994913  -2.097921  -1.183362
    H    0.760400   0.728400   0.578000
    H    2.809900  -0.097900   1.003200
    H    2.817400   1.026800  -0.378600
    H    3.890837  -1.524063  -0.478568
    H    3.331087  -0.638656  -1.884912
    H    1.778858  -2.579060  -0.310833
    H    2.394866  -2.805011  -1.800058
}

set optking { frozen_dihedral = (" 1 2 3 4 ") }

energy, wfn = energy('B3LYP-D3', return_wfn=True)

import os
os.chdir(os.environ['HTMD_PSI4_WORKDIR'])

oeprop(wfn, 'DIPOLE', 'QUADRUPOLE', 'MULLIKEN_CHARGES')

with open('psi4out.xyz', 'w') as f:
    f.write('11 ' )
    f.write('%.12f\n' % energy)
    f.write(MOL.save_string_xyz())
--------------------------------------------------------------------------

    Molecular point group: c1

    Geometry (in Angstrom), charge = 0, multiplicity = 1:

       Center              X                  Y                   Z               Mass
    ------------   -----------------  -----------------  -----------------  -----------------
         O            1.050400000000     0.042900000000    -0.048100000000    15.994914619560
         C            2.474100000000     0.047400000000    -0.029000000000    12.000000000000
         C            3.002600000000    -1.068900000000    -0.932000000000    12.000000000000
         N            1.994913000000    -2.097921000000    -1.183362000000    14.003074004780
         H            0.760400000000     0.728400000000     0.578000000000     1.007825032070
         H            2.809900000000    -0.097900000000     1.003200000000     1.007825032070
         H            2.817400000000     1.026800000000    -0.378600000000     1.007825032070
         H            3.890837000000    -1.524063000000    -0.478568000000     1.007825032070
         H            3.331087000000    -0.638656000000    -1.884912000000     1.007825032070
         H            1.778858000000    -2.579060000000    -0.310833000000     1.007825032070
         H            2.394866000000    -2.805011000000    -1.800058000000     1.007825032070

  Charge       = 0
  Multiplicity = 1
  Basis Set: CC-PVDZ
    Blend: CC-PVDZ
  Basis Set: (CC-PVDZ AUX)
    Blend: CC-PVDZ-JKFIT

    Orbital Energies [Eh]
    ---------------------

    Doubly Occupied:

       1A    -19.120734     2A    -14.294794     3A    -10.222819
       4A    -10.201288     5A     -1.004668     6A     -0.867647
       7A     -0.713977     8A     -0.590969     9A     -0.508551
      10A     -0.482649    11A     -0.440182    12A     -0.415082
      13A     -0.387306    14A     -0.359420    15A     -0.319068
      16A     -0.254359    17A     -0.219532

  @DF-RKS Final Energy:  -210.38176547355562

   => Energetics <=

    Nuclear Repulsion Energy =            133.8904008127865666
    One-Electron Energy =                -550.8546107421644820
    Two-Electron Energy =                 230.0763386164967699
    DFT Exchange-Correlation Energy =     -23.4890389406744511
    Empirical Dispersion Energy =          -0.0048552200000000
    VV10 Nonlocal Energy =                  0.0000000000000000
    Total Energy =                       -210.3817654735556175

  Dipole Moment: [D]
     X:     1.5873      Y:     0.2155      Z:     1.2961     Total:     2.0605

  Mulliken Charges: (a.u.)
   Center  Symbol    Alpha    Beta     Spin     Total
       1     O     4.13078  4.13078  0.00000 -0.26157
       2     C     2.93249  2.93249  0.00000  0.13502
       3     C     2.98581  2.98581  0.00000  0.02839
       4     N     3.57911  3.57911  0.00000 -0.15823
       5     H     0.43334  0.43334  0.00000  0.13331
       6     H     0.50401  0.50401  0.00000 -0.00802
       7     H     0.50115  0.50115  0.00000 -0.00230
       8     H     0.50584  0.50584  0.00000 -0.01167
       9     H     0.49269  0.49269  0.00000  0.01461
      10     H     0.46690  0.46690  0.00000  0.06620
      11     H     0.46788  0.46788  0.00000  0.06425

   Total alpha = 17.00000, Total beta = 17.00000, Total charge =  0.00000

*** Psi4 exiting successfully. Buy a developer a beer!
