                               Psi4 1.2.1 release

  ==> Input File <==

--------------------------------------------------------------------------
set_num_threads(4)
set_memory('3000 MB')

set { scf_mem_safety_factor 0.7 }

set { reference rks }
set { basis 6-31G* }

molecule MOL {
    1 1
    noreorient
    nocom
    symmetry c1
    C   -0.000000  -0.000000  -0.177864
    C    0.036678   1.219374   0.524165
    C    0.031765   1.213120   1.915444
    C    0.000000   0.000000   2.610107
    C   -0.031765  -1.213120   1.915444
    C   -0.036678  -1.219375   0.524165
    C   -0.000000   0.000000  -1.644734
    H    0.018170   2.164705  -0.010854
    H    0.042402   2.152895   2.457886
    H    0.000000   0.000000   3.695756
    H   -0.042402  -2.152895   2.457886
    H   -0.018170  -2.164705  -0.010853
    N   -0.712590  -0.905950  -2.308461
    N    0.712590   0.905950  -2.308460
    H    0.673432   1.006470  -3.315997
    H    1.377190   1.485970  -1.813316
    H   -0.964148  -0.740566  -3.274199
    H   -0.969019  -1.802541  -1.912057
}

set optking { frozen_dihedral = (" 1 7 13 17 ") }

set optking { dynamic_level = 1
 geom_maxiter = 250
 print_trajectory_xyz_file = True }

energy, wfn = optimize('B3LYP-D3', return_wfn=True)

import os
os.chdir(os.environ['HTMD_PSI4_WORKDIR'])

oeprop(wfn, 'DIPOLE', 'QUADRUPOLE', 'MULLIKEN_CHARGES')

with open('psi4out.xyz', 'w') as f:
    f.write('18 ' )
    f.write('%.12f\n' % energy)
    f.write(MOL.save_string_xyz())
--------------------------------------------------------------------------

    Molecular point group: c1
  Charge       = 1
  Multiplicity = 1
  Basis Set: 6-31G*
    Blend: 6-31G*
  Basis Set: (6-31G* AUX)
    Blend: CC-PVDZ-JKFIT
  @DF-RKS Final Energy:  -381.46071566029821
    Total Energy =                       -381.4607156602982059
    Molecular point group: c1
  Basis Set: 6-31G*
    Blend: 6-31G*
  Basis Set: (6-31G* AUX)
    Blend: CC-PVDZ-JKFIT
  Basis Set: 6-31G*
    Blend: 6-31G*
  Basis Set: (6-31G* AUX)
    Blend: CC-PVDZ-JKFIT
  @DF-RKS Final Energy:  -381.46508540877397
    Total Energy =                       -381.4650854087739731
  Basis Set: 6-31G*
    Blend: 6-31G*
  Basis Set: (6-31G* AUX)
    Blend: CC-PVDZ-JKFIT
  Basis Set: 6-31G*
    Blend: 6-31G*
  @DF-RKS Final Energy:  -381.46679886376319
    Total Energy =                       -381.4667988637632448
  @DF-RKS Final Energy:  -381.46785471439966
    Total Energy =                       -381.4678547143996070
  @DF-RKS Final Energy:  -381.46794184101515
    Total Energy =                       -381.4679418410151470
  @DF-RKS Final Energy:  -381.46795735664500
    Total Energy =                       -381.4679573566450017
  Basis Set: (6-31G* AUX)
    Blend: CC-PVDZ-JKFIT
  Basis Set: 6-31G*
    Blend: 6-31G*
  Basis Set: (6-31G* AUX)
    Blend: CC-PVDZ-JKFIT
  @DF-RKS Final Energy:  -381.46795880499843
    Total Energy =                       -381.4679588049984318
  Basis Set: 6-31G*
    Blend: 6-31G*
  Basis Set: (6-31G* AUX)
    Blend: CC-PVDZ-JKFIT
  Charge       = 1
  Multiplicity = 1
  Basis Set: 6-31G*
    Blend: 6-31G*
  Basis Set: (6-31G* AUX)
    Blend: CC-PVDZ-JKFIT

    Orbital Energies [Eh]
    ---------------------

    Doubly Occupied:

       1A    -14.570964     2A    -14.566849     3A    -10.499314
       4A    -10.374803     5A    -10.357341     6A    -10.356395
       7A    -10.343067     8A    -10.341055     9A    -10.340874
      10A     -1.185429    11A     -1.093798    12A     -1.015078
      13A     -0.927331    14A     -0.902886    15A     -0.845645
      16A     -0.785863    17A     -0.774818    18A     -0.740330
      19A     -0.733257    20A     -0.684967    21A     -0.669012
      22A     -0.627826    23A     -0.616759    24A     -0.591600
      25A     -0.578666    26A     -0.574412    27A     -0.518126
      28A     -0.506726    29A     -0.498865    30A     -0.475190
      31A     -0.411393    32A     -0.406267

  @DF-RKS Final Energy:  -381.46795894288658

   => Energetics <=

    Nuclear Repulsion Energy =            416.8883022180544913
    One-Electron Energy =               -1328.9359417287237193
    Two-Electron Energy =                 574.9959258976225556
    DFT Exchange-Correlation Energy =     -44.4043510498399172
    Empirical Dispersion Energy =          -0.0118942800000000
    VV10 Nonlocal Energy =                  0.0000000000000000
    Total Energy =                       -381.4679589428865825
    Molecular point group: c1
  Basis Set: 6-31G*
    Blend: 6-31G*
  Basis Set: (6-31G* AUX)
    Blend: CC-PVDZ-JKFIT

  -Total Gradient:
     Atom            X                  Y                   Z
    ------   -----------------  -----------------  -----------------
       1       -0.003778910576     0.002822705637    -0.000014484442
       2        0.000010941222     0.000008293036    -0.000012872312
       3       -0.000001777869     0.000000226257     0.000008183278
       4        0.000001145545    -0.000000013444    -0.000007135612
       5       -0.000005289103     0.000006327278     0.000004112374
       6        0.000017303323    -0.000015199532    -0.000007468438
       7        0.003493195467    -0.003187070336     0.000831941331
       8       -0.000001548428    -0.000007431934    -0.000004360923
       9       -0.000002855522    -0.000002248300     0.000000110309
      10        0.000000240999     0.000000981687    -0.000000879670
      11       -0.000003290964     0.000000465770     0.000000127059
      12       -0.000004514371     0.000004423789    -0.000003712639
      13        0.006216272117    -0.002615203143    -0.002820499006
      14        0.000016216134    -0.000025341882     0.000001275980
      15       -0.000008344272     0.000007561772     0.000001423820
      16       -0.000010166387     0.000010581966     0.000004083876
      17       -0.005941246486     0.002953207535     0.001994079175
      18       -0.000001869238     0.000028466245     0.000002059720

  **** Optimization is complete! (in 8 steps) ****
    Final optimized geometry and variables:
    Molecular point group: c1

    Geometry (in Angstrom), charge = 1, multiplicity = 1:

    C            0.038835561753    -0.020943621225    -0.183780895445
    C            0.039185285993     1.201615734588     0.512975725510
    C            0.006123494471     1.200232036247     1.904323909331
    C           -0.011894057792    -0.009556657992     2.604332242090
    C           -0.003303615948    -1.225801542844     1.914409391779
    C            0.017408147936    -1.237749628219     0.523441964420
    C            0.050551928711    -0.024461388989    -1.651973746780
    H            0.009433892390     2.145622779757    -0.023686896254
    H           -0.014716470450     2.142705467712     2.441797848753
    H           -0.032766806357    -0.004767011235     3.689731416887
    H           -0.002500223301    -2.163571235368     2.460411078538
    H            0.067360949464    -2.185429167346    -0.005867266654
    N           -0.636629355736    -0.953582515692    -2.322407435849
    N            0.713315231498     0.918193118873    -2.312193558726
    H            0.708305272153     0.987176438993    -3.323351957135
    H            1.344950932590     1.532836678914    -1.815307420141
    H           -0.897236746236    -0.820487090501    -3.293629005543
    H           -1.278968421138    -1.532700395673    -1.795167394779

  Dipole Moment: [D]
     X:    -0.2521      Y:     0.3834      Z:    -5.6616     Total:     5.6802

  Mulliken Charges: (a.u.)
   Center  Symbol    Alpha    Beta     Spin     Total
       1     C     2.95576  2.95576  0.00000  0.08849
       2     C     3.08286  3.08286  0.00000 -0.16573
       3     C     3.06246  3.06246  0.00000 -0.12492
       4     C     3.05162  3.05162  0.00000 -0.10325
       5     C     3.06234  3.06234  0.00000 -0.12468
       6     C     3.08439  3.08439  0.00000 -0.16877
       7     C     2.72887  2.72887  0.00000  0.54225
       8     H     0.41491  0.41491  0.00000  0.17018
       9     H     0.40539  0.40539  0.00000  0.18921
      10     H     0.40384  0.40384  0.00000  0.19231
      11     H     0.40518  0.40518  0.00000  0.18964
      12     H     0.41207  0.41207  0.00000  0.17586
      13     N     3.85811  3.85811  0.00000 -0.71622
      14     N     3.86038  3.86038  0.00000 -0.72076
      15     H     0.30472  0.30472  0.00000  0.39056
      16     H     0.29893  0.29893  0.00000  0.40214
      17     H     0.30625  0.30625  0.00000  0.38750
      18     H     0.30191  0.30191  0.00000  0.39619

   Total alpha = 32.00000, Total beta = 32.00000, Total charge =  1.00000

*** Psi4 exiting successfully. Buy a developer a beer!
