                               Psi4 1.2.1 release

  ==> Input File <==

--------------------------------------------------------------------------
set_num_threads(1)
set_memory('5348 MB')

set { scf_mem_safety_factor 0.7 }

set { reference rks }
set { basis cc-pVDZ }

molecule MOL {
    0 1
    noreorient
    nocom
    symmetry c1
    O    1.141000   0.017000   0.083000
    C    2.558000   0.086000  -0.005000
    C    3.192000  -0.789000   1.067000
    O    4.610000  -0.719000   0.979000
    H    0.789000   0.590000  -0.620000
    H    2.874000   1.128000   0.115000
    H    2.871000  -0.243000  -1.001000
    H    2.876000  -1.830000   0.947000
    H    2.879000  -0.459000   2.064000
    H    4.813586  -0.117785   0.241451
}

set optking { frozen_dihedral = (" 2 3 4 10 ") }

energy, wfn = energy('B3LYP-D3', return_wfn=True)

import os
os.chdir(os.environ['HTMD_PSI4_WORKDIR'])

oeprop(wfn, 'DIPOLE', 'QUADRUPOLE', 'MULLIKEN_CHARGES')

with open('psi4out.xyz', 'w') as f:
    f.write('10 ' )
    f.write('%.12f\n' % energy)
    f.write(MOL.save_string_xyz())
--------------------------------------------------------------------------

    Molecular point group: c1

    Geometry (in Angstrom), charge = 0, multiplicity = 1:

       Center              X                  Y                   Z               Mass
    ------------   -----------------  -----------------  -----------------  -----------------
         O            1.141000000000     0.017000000000     0.083000000000    15.994914619560
         C            2.558000000000     0.086000000000    -0.005000000000    12.000000000000
         C            3.192000000000    -0.789000000000     1.067000000000    12.000000000000
         O            4.610000000000    -0.719000000000     0.979000000000    15.994914619560
         H            0.789000000000     0.590000000000    -0.620000000000     1.007825032070
         H            2.874000000000     1.128000000000     0.115000000000     1.007825032070
         H            2.871000000000    -0.243000000000    -1.001000000000     1.007825032070
         H            2.876000000000    -1.830000000000     0.947000000000     1.007825032070
         H            2.879000000000    -0.459000000000     2.064000000000     1.007825032070
         H            4.813586000000    -0.117785000000     0.241451000000     1.007825032070

  Charge       = 0
  Multiplicity = 1
  Basis Set: CC-PVDZ
    Blend: CC-PVDZ
  Basis Set: (CC-PVDZ AUX)
    Blend: CC-PVDZ-JKFIT

    Orbital Energies [Eh]
    ---------------------

    Doubly Occupied:

       1A    -19.139843     2A    -19.133213     3A    -10.237781
       4A    -10.226740     5A     -1.026008     6A     -1.012488
       7A     -0.733769     8A     -0.626365     9A     -0.518627
      10A     -0.484771    11A     -0.479122    12A     -0.423168
      13A     -0.399218    14A     -0.355598    15A     -0.323754
      16A     -0.273615    17A     -0.265597

  @DF-RKS Final Energy:  -230.25557610235043

   => Energetics <=

    Nuclear Repulsion Energy =            130.1463295583290574
    One-Electron Energy =                -571.8516096379722740
    Two-Electron Energy =                 235.9929026313068903
    DFT Exchange-Correlation Energy =     -24.5385690140141257
    Empirical Dispersion Energy =          -0.0046296400000000
    VV10 Nonlocal Energy =                  0.0000000000000000
    Total Energy =                       -230.2555761023504317

  Dipole Moment: [D]
     X:    -0.4148      Y:     1.7027      Z:    -2.0921     Total:     2.7291

  Mulliken Charges: (a.u.)
   Center  Symbol    Alpha    Beta     Spin     Total
       1     O     4.13640  4.13640  0.00000 -0.27280
       2     C     2.96188  2.96188  0.00000  0.07624
       3     C     2.91968  2.91968  0.00000  0.16065
       4     O     4.13629  4.13629  0.00000 -0.27257
       5     H     0.42795  0.42795  0.00000  0.14410
       6     H     0.49993  0.49993  0.00000  0.00014
       7     H     0.49996  0.49996  0.00000  0.00007
       8     H     0.49234  0.49234  0.00000  0.01532
       9     H     0.49231  0.49231  0.00000  0.01539
      10     H     0.43327  0.43327  0.00000  0.13346

   Total alpha = 17.00000, Total beta = 17.00000, Total charge = -0.00000

*** Psi4 exiting successfully. Buy a developer a beer!
