                               Psi4 1.2.1 release

  ==> Input File <==

--------------------------------------------------------------------------
set_num_threads(1)
set_memory('5348 MB')

set { scf_mem_safety_factor 0.7 }

set { reference rks }
set { basis cc-pVDZ }

molecule MOL {
    0 1
    noreorient
    nocom
    symmetry c1
    O    1.050400   0.042900  -0.048100
    C    2.474100   0.047400  -0.029000
    C    3.002600  -1.068900  -0.932000
    N    4.442451  -1.268785  -0.775877
    H    0.760400   0.728400   0.578000
    H    2.809900  -0.097900   1.003200
    H    2.817400   1.026800  -0.378600
    H    2.772430  -0.839802  -1.979031
    H    2.476843  -2.001959  -0.699544
    H    4.936084  -0.440380  -1.106864
    H    4.735972  -2.030950  -1.386780
}

set optking { frozen_dihedral = (" 1 2 3 4 ") }

energy, wfn = energy('B3LYP-D3', return_wfn=True)

import os
os.chdir(os.environ['HTMD_PSI4_WORKDIR'])

oeprop(wfn, 'DIPOLE', 'QUADRUPOLE', 'MULLIKEN_CHARGES')

with open('psi4out.xyz', 'w') as f:
    f.write('11 ' )
    f.write('%.12f\n' % energy)
    f.write(MOL.save_string_xyz())
--------------------------------------------------------------------------

    Molecular point group: c1

    Geometry (in Angstrom), charge = 0, multiplicity = 1:

       Center              X                  Y                   Z               Mass
    ------------   -----------------  -----------------  -----------------  -----------------
         O            1.050400000000     0.042900000000    -0.048100000000    15.994914619560
         C            2.474100000000     0.047400000000    -0.029000000000    12.000000000000
         C            3.002600000000    -1.068900000000    -0.932000000000    12.000000000000
         N            4.442451000000    -1.268785000000    -0.775877000000    14.003074004780
         H            0.760400000000     0.728400000000     0.578000000000     1.007825032070
         H            2.809900000000    -0.097900000000     1.003200000000     1.007825032070
         H            2.817400000000     1.026800000000    -0.378600000000     1.007825032070
         H            2.772430000000    -0.839802000000    -1.979031000000     1.007825032070
         H            2.476843000000    -2.001959000000    -0.699544000000     1.007825032070
         H            4.936084000000    -0.440380000000    -1.106864000000     1.007825032070
         H            4.735972000000    -2.030950000000    -1.386780000000     1.007825032070

  Charge       = 0
  Multiplicity = 1
  Basis Set: CC-PVDZ
    Blend: CC-PVDZ
  Basis Set: (CC-PVDZ AUX)
    Blend: CC-PVDZ-JKFIT

    Orbital Energies [Eh]
    ---------------------

    Doubly Occupied:

       1A    -19.126663     2A    -14.305169     3A    -10.223257
       4A    -10.201667     5A     -1.009047     6A     -0.876969
       7A     -0.712063     8A     -0.596931     9A     -0.505947
      10A     -0.482966    11A     -0.460116    12A     -0.411886
      13A     -0.388386    14A     -0.363934    15A     -0.323009
      16A     -0.260201    17A     -0.231331

  @DF-RKS Final Energy:  -210.39096984386893

   => Energetics <=

    Nuclear Repulsion Energy =            130.4128226853673311
    One-Electron Energy =                -543.7664057936885911
    Two-Electron Energy =                 226.4540424296086485
    DFT Exchange-Correlation Energy =     -23.4865355951563508
    Empirical Dispersion Energy =          -0.0048935700000000
    VV10 Nonlocal Energy =                  0.0000000000000000
    Total Energy =                       -210.3909698438689304

  Dipole Moment: [D]
     X:     0.6882      Y:     1.0891      Z:    -0.3852     Total:     1.3447

  Mulliken Charges: (a.u.)
   Center  Symbol    Alpha    Beta     Spin     Total
       1     O     4.13943  4.13943  0.00000 -0.27887
       2     C     2.93014  2.93014  0.00000  0.13973
       3     C     2.98480  2.98480  0.00000  0.03039
       4     N     3.59248  3.59248  0.00000 -0.18497
       5     H     0.42988  0.42988  0.00000  0.14024
       6     H     0.49874  0.49874  0.00000  0.00253
       7     H     0.50422  0.50422  0.00000 -0.00845
       8     H     0.50144  0.50144  0.00000 -0.00289
       9     H     0.48932  0.48932  0.00000  0.02137
      10     H     0.46614  0.46614  0.00000  0.06771
      11     H     0.46340  0.46340  0.00000  0.07320

   Total alpha = 17.00000, Total beta = 17.00000, Total charge = -0.00000

*** Psi4 exiting successfully. Buy a developer a beer!
