                               Psi4 1.2.1 release

  ==> Input File <==

--------------------------------------------------------------------------
set_num_threads(4)
set_memory('3000 MB')

set { scf_mem_safety_factor 0.7 }

set { reference rks }
set { basis 6-31G* }

molecule MOL {
    1 1
    noreorient
    nocom
    symmetry c1
    C   -0.000000  -0.000000  -0.177864
    C    0.036678   1.219374   0.524165
    C    0.031765   1.213120   1.915444
    C    0.000000   0.000000   2.610107
    C   -0.031765  -1.213120   1.915444
    C   -0.036678  -1.219375   0.524165
    C   -0.000000   0.000000  -1.644734
    H    0.018170   2.164705  -0.010854
    H    0.042402   2.152895   2.457886
    H    0.000000   0.000000   3.695756
    H   -0.042402  -2.152895   2.457886
    H   -0.018170  -2.164705  -0.010853
    N   -0.712590  -0.905950  -2.308461
    N    0.712590   0.905950  -2.308460
    H    0.673432   1.006470  -3.315997
    H    1.377190   1.485970  -1.813316
    H   -1.722964  -0.857406  -2.300040
    H   -0.289980  -1.621096  -2.888748
}

set optking { frozen_dihedral = (" 1 7 13 17 ") }

set optking { dynamic_level = 1
 geom_maxiter = 250
 print_trajectory_xyz_file = True }

energy, wfn = optimize('B3LYP-D3', return_wfn=True)

import os
os.chdir(os.environ['HTMD_PSI4_WORKDIR'])

oeprop(wfn, 'DIPOLE', 'QUADRUPOLE', 'MULLIKEN_CHARGES')

with open('psi4out.xyz', 'w') as f:
    f.write('18 ' )
    f.write('%.12f\n' % energy)
    f.write(MOL.save_string_xyz())
--------------------------------------------------------------------------

    Molecular point group: c1
  Charge       = 1
  Multiplicity = 1
  Basis Set: 6-31G*
    Blend: 6-31G*
  Basis Set: (6-31G* AUX)
    Blend: CC-PVDZ-JKFIT
  @DF-RKS Final Energy:  -381.43913296715135
    Total Energy =                       -381.4391329671513517
    Molecular point group: c1
  Basis Set: 6-31G*
    Blend: 6-31G*
  Basis Set: (6-31G* AUX)
    Blend: CC-PVDZ-JKFIT
  Basis Set: 6-31G*
    Blend: 6-31G*
  Basis Set: (6-31G* AUX)
    Blend: CC-PVDZ-JKFIT
  @DF-RKS Final Energy:  -381.44794223728928
    Total Energy =                       -381.4479422372893396
  Basis Set: 6-31G*
    Blend: 6-31G*
  Basis Set: (6-31G* AUX)
    Blend: CC-PVDZ-JKFIT
  Basis Set: 6-31G*
    Blend: 6-31G*
  @DF-RKS Final Energy:  -381.45261648085545
    Total Energy =                       -381.4526164808554540
  @DF-RKS Final Energy:  -381.45498072843247
    Total Energy =                       -381.4549807284324174
  @DF-RKS Final Energy:  -381.45735972224463
    Total Energy =                       -381.4573597222446892
  @DF-RKS Final Energy:  -381.45752651916956
    Total Energy =                       -381.4575265191695053
  @DF-RKS Final Energy:  -381.45757305815289
    Total Energy =                       -381.4575730581529456
  @DF-RKS Final Energy:  -381.45757908311867
    Total Energy =                       -381.4575790831186737
  @DF-RKS Final Energy:  -381.45755898694637
    Total Energy =                       -381.4575589869463670
  Basis Set: (6-31G* AUX)
    Blend: CC-PVDZ-JKFIT
  Basis Set: 6-31G*
    Blend: 6-31G*
  Basis Set: (6-31G* AUX)
    Blend: CC-PVDZ-JKFIT
  @DF-RKS Final Energy:  -381.45757908311833
    Total Energy =                       -381.4575790831183326
  Basis Set: 6-31G*
    Blend: 6-31G*
  Basis Set: (6-31G* AUX)
    Blend: CC-PVDZ-JKFIT
  Charge       = 1
  Multiplicity = 1
  Basis Set: 6-31G*
    Blend: 6-31G*
  Basis Set: (6-31G* AUX)
    Blend: CC-PVDZ-JKFIT

    Orbital Energies [Eh]
    ---------------------

    Doubly Occupied:

       1A    -14.577717     2A    -14.553872     3A    -10.496582
       4A    -10.372552     5A    -10.359280     6A    -10.355501
       7A    -10.347730     8A    -10.342589     9A    -10.340602
      10A     -1.181689    11A     -1.086859    12A     -1.015400
      13A     -0.928838    14A     -0.903428    15A     -0.842553
      16A     -0.778195    17A     -0.771752    18A     -0.736623
      19A     -0.725173    20A     -0.694823    21A     -0.668246
      22A     -0.626283    23A     -0.606331    24A     -0.581345
      25A     -0.580550    26A     -0.565479    27A     -0.517408
      28A     -0.507223    29A     -0.498593    30A     -0.478456
      31A     -0.414625    32A     -0.406985

  @DF-RKS Final Energy:  -381.45757920529593

   => Energetics <=

    Nuclear Repulsion Energy =            416.4195598921566557
    One-Electron Energy =               -1328.0871874323570410
    Two-Electron Energy =                 574.6171865954514715
    DFT Exchange-Correlation Energy =     -44.3954117805470787
    Empirical Dispersion Energy =          -0.0117264800000000
    VV10 Nonlocal Energy =                  0.0000000000000000
    Total Energy =                       -381.4575792052959287
    Molecular point group: c1
  Basis Set: 6-31G*
    Blend: 6-31G*
  Basis Set: (6-31G* AUX)
    Blend: CC-PVDZ-JKFIT

  -Total Gradient:
     Atom            X                  Y                   Z
    ------   -----------------  -----------------  -----------------
       1        0.009307689741    -0.004606844169    -0.000001973715
       2        0.000023373431     0.000004715365     0.000008359741
       3       -0.000004241645     0.000008051517    -0.000010146424
       4       -0.000002913472     0.000000461737     0.000005330436
       5       -0.000021213754    -0.000004087087    -0.000012364332
       6        0.000041002261    -0.000007345932     0.000017406191
       7       -0.014734653034     0.009771729648    -0.004006821700
       8        0.000005355002     0.000002568040     0.000002127482
       9       -0.000002303853     0.000002204029    -0.000002740951
      10        0.000005139015     0.000000504301    -0.000001362502
      11       -0.000003947190    -0.000001923200    -0.000003009342
      12       -0.000000328329    -0.000004095754    -0.000000044291
      13        0.006871524939    -0.013153588561     0.015867447596
      14       -0.000015619726    -0.000023824811     0.000022044513
      15        0.000008479214    -0.000004900670     0.000004128284
      16        0.000011143079     0.000007695783    -0.000001812053
      17       -0.001494442457     0.008001583370    -0.011899997383
      18        0.000005858029    -0.000000007270     0.000003266542

  **** Optimization is complete! (in 2 steps) ****
    Final optimized geometry and variables:
    Molecular point group: c1

    Geometry (in Angstrom), charge = 1, multiplicity = 1:

    C           -0.032338657230     0.008104631225    -0.161477096491
    C            0.067571812932     1.229304277363     0.541411251582
    C            0.095115467340     1.226631313633     1.929267664417
    C            0.015691795605     0.014325417949     2.626446975733
    C           -0.098510920197    -1.197238816484     1.936922882068
    C           -0.129611174088    -1.207974125418     0.547204202702
    C           -0.032762400554    -0.013414172118    -1.615033953742
    H            0.074156303907     2.175549028722     0.006777039361
    H            0.162240214457     2.164217667406     2.471305269264
    H            0.038955554459     0.016355765587     3.712021841105
    H           -0.153630340801    -2.132725269512     2.484008253762
    H           -0.184096886058    -2.145223406692     0.004349567019
    N           -0.556176394552    -1.089020886202    -2.272483233359
    N            0.666206759257     0.886160819288    -2.296336837613
    H            0.631594804214     0.947384545635    -3.307875630496
    H            1.296804672444     1.521044247103    -1.820310169319
    H           -1.566417479492    -1.203399811137    -2.223379416776
    H           -0.257115131641    -1.186144226348    -3.241292609218

  Dipole Moment: [D]
     X:    -0.0252      Y:     0.8415      Z:    -5.6250     Total:     5.6876

  Mulliken Charges: (a.u.)
   Center  Symbol    Alpha    Beta     Spin     Total
       1     C     2.95082  2.95082  0.00000  0.09836
       2     C     3.08467  3.08467  0.00000 -0.16933
       3     C     3.06274  3.06274  0.00000 -0.12548
       4     C     3.04974  3.04974  0.00000 -0.09948
       5     C     3.06260  3.06260  0.00000 -0.12519
       6     C     3.07164  3.07164  0.00000 -0.14329
       7     C     2.75681  2.75681  0.00000  0.48637
       8     H     0.41548  0.41548  0.00000  0.16904
       9     H     0.40495  0.40495  0.00000  0.19010
      10     H     0.40259  0.40259  0.00000  0.19481
      11     H     0.40443  0.40443  0.00000  0.19114
      12     H     0.40418  0.40418  0.00000  0.19163
      13     N     3.85798  3.85798  0.00000 -0.71596
      14     N     3.84887  3.84887  0.00000 -0.69775
      15     H     0.30472  0.30472  0.00000  0.39056
      16     H     0.29929  0.29929  0.00000  0.40142
      17     H     0.30248  0.30248  0.00000  0.39504
      18     H     0.31600  0.31600  0.00000  0.36799

   Total alpha = 32.00000, Total beta = 32.00000, Total charge =  1.00000

*** Psi4 exiting successfully. Buy a developer a beer!
