                               Psi4 1.2.1 release

  ==> Input File <==

--------------------------------------------------------------------------
set_num_threads(1)
set_memory('5348 MB')

set { scf_mem_safety_factor 0.7 }

set { reference rks }
set { basis cc-pVDZ }

molecule MOL {
    0 1
    noreorient
    nocom
    symmetry c1
    O    1.050400   0.042900  -0.048100
    C    2.474100   0.047400  -0.029000
    C    3.002600  -1.068900  -0.932000
    N    4.462700  -1.072400  -1.006800
    H    0.760400   0.728400   0.578000
    H    2.809900  -0.097900   1.003200
    H    2.817400   1.026800  -0.378600
    H    2.581000  -0.963300  -1.938400
    H    2.653800  -2.036400  -0.553400
    H    4.831995  -0.316324  -0.431081
    H    4.742673  -0.856651  -1.963523
}

set optking { frozen_dihedral = (" 2 3 4 10 ") }

energy, wfn = energy('B3LYP-D3', return_wfn=True)

import os
os.chdir(os.environ['HTMD_PSI4_WORKDIR'])

oeprop(wfn, 'DIPOLE', 'QUADRUPOLE', 'MULLIKEN_CHARGES')

with open('psi4out.xyz', 'w') as f:
    f.write('11 ' )
    f.write('%.12f\n' % energy)
    f.write(MOL.save_string_xyz())
--------------------------------------------------------------------------

    Molecular point group: c1

    Geometry (in Angstrom), charge = 0, multiplicity = 1:

       Center              X                  Y                   Z               Mass
    ------------   -----------------  -----------------  -----------------  -----------------
         O            1.050400000000     0.042900000000    -0.048100000000    15.994914619560
         C            2.474100000000     0.047400000000    -0.029000000000    12.000000000000
         C            3.002600000000    -1.068900000000    -0.932000000000    12.000000000000
         N            4.462700000000    -1.072400000000    -1.006800000000    14.003074004780
         H            0.760400000000     0.728400000000     0.578000000000     1.007825032070
         H            2.809900000000    -0.097900000000     1.003200000000     1.007825032070
         H            2.817400000000     1.026800000000    -0.378600000000     1.007825032070
         H            2.581000000000    -0.963300000000    -1.938400000000     1.007825032070
         H            2.653800000000    -2.036400000000    -0.553400000000     1.007825032070
         H            4.831995000000    -0.316324000000    -0.431081000000     1.007825032070
         H            4.742673000000    -0.856651000000    -1.963523000000     1.007825032070

  Charge       = 0
  Multiplicity = 1
  Basis Set: CC-PVDZ
    Blend: CC-PVDZ
  Basis Set: (CC-PVDZ AUX)
    Blend: CC-PVDZ-JKFIT

    Orbital Energies [Eh]
    ---------------------

    Doubly Occupied:

       1A    -19.130281     2A    -14.304606     3A    -10.228747
       4A    -10.201323     5A     -1.012804     6A     -0.878268
       7A     -0.712109     8A     -0.604790     9A     -0.509869
      10A     -0.483838    11A     -0.459599    12A     -0.414756
      13A     -0.389851    14A     -0.363445    15A     -0.327533
      16A     -0.264659    17A     -0.231370

  @DF-RKS Final Energy:  -210.38788474662806

   => Energetics <=

    Nuclear Repulsion Energy =            130.7904411950395627
    One-Electron Energy =                -544.4379491908182445
    Two-Electron Energy =                 226.7524013598467718
    DFT Exchange-Correlation Energy =     -23.4878352006961180
    Empirical Dispersion Energy =          -0.0049429100000000
    VV10 Nonlocal Energy =                  0.0000000000000000
    Total Energy =                       -210.3878847466280604

  Dipole Moment: [D]
     X:     0.4310      Y:     2.1518      Z:     0.4092     Total:     2.2324

  Mulliken Charges: (a.u.)
   Center  Symbol    Alpha    Beta     Spin     Total
       1     O     4.13751  4.13751  0.00000 -0.27502
       2     C     2.94328  2.94328  0.00000  0.11344
       3     C     2.97859  2.97859  0.00000  0.04282
       4     N     3.59102  3.59102  0.00000 -0.18205
       5     H     0.43048  0.43048  0.00000  0.13903
       6     H     0.49787  0.49787  0.00000  0.00426
       7     H     0.50492  0.50492  0.00000 -0.00984
       8     H     0.49450  0.49450  0.00000  0.01100
       9     H     0.49059  0.49059  0.00000  0.01882
      10     H     0.46886  0.46886  0.00000  0.06229
      11     H     0.46238  0.46238  0.00000  0.07523

   Total alpha = 17.00000, Total beta = 17.00000, Total charge = -0.00000

*** Psi4 exiting successfully. Buy a developer a beer!
