                               Psi4 1.2.1 release

  ==> Input File <==

--------------------------------------------------------------------------
set_num_threads(4)
set_memory('3000 MB')

set { scf_mem_safety_factor 0.7 }

set { reference rks }
set { basis 6-31G* }

molecule MOL {
    1 1
    noreorient
    nocom
    symmetry c1
    C   -0.000000  -0.000000  -0.177864
    C    0.036678   1.219374   0.524165
    C    0.031765   1.213120   1.915444
    C    0.000000   0.000000   2.610107
    C   -0.031765  -1.213120   1.915444
    C   -0.036678  -1.219375   0.524165
    C   -0.000000   0.000000  -1.644734
    H    0.018170   2.164705  -0.010854
    H    0.042402   2.152895   2.457886
    H    0.000000   0.000000   3.695756
    H   -0.042402  -2.152895   2.457886
    H   -0.018170  -2.164705  -0.010853
    N   -0.712590  -0.905950  -2.308461
    N    0.712590   0.905950  -2.308460
    H    0.673432   1.006470  -3.315997
    H    1.377190   1.485970  -1.813316
    H   -1.614535  -0.655552  -2.691971
    H   -0.366905  -1.836391  -2.512294
}

set optking { frozen_dihedral = (" 1 7 13 17 ") }

set optking { dynamic_level = 1
 geom_maxiter = 250
 print_trajectory_xyz_file = True }

energy, wfn = optimize('B3LYP-D3', return_wfn=True)

import os
os.chdir(os.environ['HTMD_PSI4_WORKDIR'])

oeprop(wfn, 'DIPOLE', 'QUADRUPOLE', 'MULLIKEN_CHARGES')

with open('psi4out.xyz', 'w') as f:
    f.write('18 ' )
    f.write('%.12f\n' % energy)
    f.write(MOL.save_string_xyz())
--------------------------------------------------------------------------

    Molecular point group: c1
  Charge       = 1
  Multiplicity = 1
  Basis Set: 6-31G*
    Blend: 6-31G*
  Basis Set: (6-31G* AUX)
    Blend: CC-PVDZ-JKFIT
  @DF-RKS Final Energy:  -381.42448726978353
    Total Energy =                       -381.4244872697834694
    Molecular point group: c1
  Basis Set: 6-31G*
    Blend: 6-31G*
  Basis Set: (6-31G* AUX)
    Blend: CC-PVDZ-JKFIT
  Basis Set: 6-31G*
    Blend: 6-31G*
  Basis Set: (6-31G* AUX)
    Blend: CC-PVDZ-JKFIT
  @DF-RKS Final Energy:  -381.43059219419627
    Total Energy =                       -381.4305921941962652
  Basis Set: 6-31G*
    Blend: 6-31G*
  Basis Set: (6-31G* AUX)
    Blend: CC-PVDZ-JKFIT
  Basis Set: 6-31G*
    Blend: 6-31G*
  @DF-RKS Final Energy:  -381.43373018279311
    Total Energy =                       -381.4337301827931128
  @DF-RKS Final Energy:  -381.43764322426944
    Total Energy =                       -381.4376432242694932
  @DF-RKS Final Energy:  -381.44100413310798
    Total Energy =                       -381.4410041331079810
  @DF-RKS Final Energy:  -381.43764322426773
    Total Energy =                       -381.4376432242677311
  @DF-RKS Final Energy:  -381.44044318800388
    Total Energy =                       -381.4404431880038260
  @DF-RKS Final Energy:  -381.44293745250189
    Total Energy =                       -381.4429374525018943
  @DF-RKS Final Energy:  -381.44530930759095
    Total Energy =                       -381.4453093075909464
  @DF-RKS Final Energy:  -381.44746713886849
    Total Energy =                       -381.4474671388685465
  @DF-RKS Final Energy:  -381.44924641872296
    Total Energy =                       -381.4492464187230212
  @DF-RKS Final Energy:  -381.45057959308321
    Total Energy =                       -381.4505795930832619
  @DF-RKS Final Energy:  -381.45158971425508
    Total Energy =                       -381.4515897142550216
  @DF-RKS Final Energy:  -381.45233970507002
    Total Energy =                       -381.4523397050700737
  @DF-RKS Final Energy:  -381.45275168149601
    Total Energy =                       -381.4527516814959540
  @DF-RKS Final Energy:  -381.45281994699928
    Total Energy =                       -381.4528199469992842
  @DF-RKS Final Energy:  -381.45282801881575
    Total Energy =                       -381.4528280188156941
  @DF-RKS Final Energy:  -381.45282984877787
    Total Energy =                       -381.4528298487778670
  @DF-RKS Final Energy:  -381.45282961461163
    Total Energy =                       -381.4528296146116304
  @DF-RKS Final Energy:  -381.45282912814884
    Total Energy =                       -381.4528291281487782
  @DF-RKS Final Energy:  -381.45282956277589
    Total Energy =                       -381.4528295627758894
  Basis Set: (6-31G* AUX)
    Blend: CC-PVDZ-JKFIT
  Basis Set: 6-31G*
    Blend: 6-31G*
  Basis Set: (6-31G* AUX)
    Blend: CC-PVDZ-JKFIT
  @DF-RKS Final Energy:  -381.45282961461260
    Total Energy =                       -381.4528296146126536
  Basis Set: 6-31G*
    Blend: 6-31G*
  Basis Set: (6-31G* AUX)
    Blend: CC-PVDZ-JKFIT
  Charge       = 1
  Multiplicity = 1
  Basis Set: 6-31G*
    Blend: 6-31G*
  Basis Set: (6-31G* AUX)
    Blend: CC-PVDZ-JKFIT

    Orbital Energies [Eh]
    ---------------------

    Doubly Occupied:

       1A    -14.577425     2A    -14.541587     3A    -10.496912
       4A    -10.379802     5A    -10.366530     6A    -10.365798
       7A    -10.355014     8A    -10.349189     9A    -10.349006
      10A     -1.179173    11A     -1.081888    12A     -1.022028
      13A     -0.931927    14A     -0.911238    15A     -0.843184
      16A     -0.785059    17A     -0.773172    18A     -0.739896
      19A     -0.721072    20A     -0.680880    21A     -0.673955
      22A     -0.636526    23A     -0.613991    24A     -0.591067
      25A     -0.585980    26A     -0.563591    27A     -0.524455
      28A     -0.515243    29A     -0.506041    30A     -0.468110
      31A     -0.422076    32A     -0.414736

  @DF-RKS Final Energy:  -381.45283040700787

   => Energetics <=

    Nuclear Repulsion Energy =            416.2423302473225135
    One-Electron Energy =               -1327.5172696516033284
    Two-Electron Energy =                 574.2277110562080225
    DFT Exchange-Correlation Energy =     -44.3935460589351436
    Empirical Dispersion Energy =          -0.0120560000000000
    VV10 Nonlocal Energy =                  0.0000000000000000
    Total Energy =                       -381.4528304070078661
    Molecular point group: c1
  Basis Set: 6-31G*
    Blend: 6-31G*
  Basis Set: (6-31G* AUX)
    Blend: CC-PVDZ-JKFIT

  -Total Gradient:
     Atom            X                  Y                   Z
    ------   -----------------  -----------------  -----------------
       1       -0.010192323798    -0.000252729344    -0.000114822322
       2        0.000012181970     0.000022785581     0.000043375593
       3       -0.000001700639     0.000010082353     0.000001830511
       4       -0.000000817727    -0.000000515239     0.000006540312
       5       -0.000008172717     0.000001655745    -0.000014730555
       6        0.000008539827     0.000006644401     0.000012374101
       7        0.015503264230    -0.002120219863     0.003685781798
       8        0.000002727474     0.000007394536    -0.000001658547
       9        0.000004844692    -0.000000034537     0.000012764641
      10        0.000003174996    -0.000002904637     0.000002163580
      11       -0.000001616217    -0.000001811752    -0.000005326048
      12        0.000014277242     0.000005832579    -0.000005282025
      13       -0.003089118892     0.009897334111    -0.014364047026
      14       -0.000010243595     0.000038852124    -0.000049939378
      15       -0.000012994376    -0.000009701613    -0.000013678219
      16       -0.000029315631     0.000015693913     0.000008484035
      17       -0.002221504007    -0.007563212602     0.010800962330
      18        0.000005500498    -0.000063513120    -0.000027311789

  **** Optimization is complete! (in 2 steps) ****
    Final optimized geometry and variables:
    Molecular point group: c1

    Geometry (in Angstrom), charge = 1, multiplicity = 1:

    C            0.086857952254     0.016856456217    -0.202528840891
    C            0.564193903602     1.119091831324     0.541689715673
    C            0.504198588350     1.096985545312     1.928459526842
    C           -0.024726792716    -0.020583390820     2.586237950544
    C           -0.487401911506    -1.122130464099     1.858315495462
    C           -0.424416485229    -1.113398961050     0.470180219656
    C            0.097334974472     0.040675625325    -1.656002370836
    H            1.025618724716     1.964267573982     0.038009029592
    H            0.882207799938     1.938038231143     2.500387180378
    H           -0.069586042117    -0.035029158301     3.670993356565
    H           -0.900168609427    -1.982810234549     2.374229815650
    H           -0.812574374942    -1.958428342261    -0.089862569766
    N            0.131428330793    -1.088968981272    -2.438109145036
    N           -0.054588505869     1.176902354679    -2.316283715628
    H            0.040066182833     1.193949156288    -3.326972232819
    H           -0.280019148892     2.044196830784    -1.843481392084
    H           -0.760666273838    -1.386560580440    -2.828940352520
    H            0.551493662854    -1.882512779813    -1.960152583655

  Dipole Moment: [D]
     X:    -0.8689      Y:     0.5735      Z:    -3.9592     Total:     4.0938

  Mulliken Charges: (a.u.)
   Center  Symbol    Alpha    Beta     Spin     Total
       1     C     2.93888  2.93888  0.00000  0.12224
       2     C     3.08304  3.08304  0.00000 -0.16607
       3     C     3.06173  3.06173  0.00000 -0.12346
       4     C     3.04952  3.04952  0.00000 -0.09905
       5     C     3.06184  3.06184  0.00000 -0.12367
       6     C     3.07890  3.07890  0.00000 -0.15780
       7     C     2.76999  2.76999  0.00000  0.46001
       8     H     0.41255  0.41255  0.00000  0.17490
       9     H     0.40293  0.40293  0.00000  0.19415
      10     H     0.40078  0.40078  0.00000  0.19843
      11     H     0.40311  0.40311  0.00000  0.19378
      12     H     0.41846  0.41846  0.00000  0.16308
      13     N     3.86583  3.86583  0.00000 -0.73167
      14     N     3.83737  3.83737  0.00000 -0.67473
      15     H     0.29753  0.29753  0.00000  0.40493
      16     H     0.30076  0.30076  0.00000  0.39847
      17     H     0.30442  0.30442  0.00000  0.39115
      18     H     0.31235  0.31235  0.00000  0.37530

   Total alpha = 32.00000, Total beta = 32.00000, Total charge =  1.00000

*** Psi4 exiting successfully. Buy a developer a beer!
