                               Psi4 1.2.1 release

  ==> Input File <==

--------------------------------------------------------------------------
set_num_threads(1)
set_memory('5348 MB')

set { scf_mem_safety_factor 0.7 }

set { reference rks }
set { basis cc-pVDZ }

molecule MOL {
    0 1
    noreorient
    nocom
    symmetry c1
    O    1.014300  -0.002300   0.060500
    O    2.462400  -0.107500  -0.002400
    H    0.821200  -0.823600  -0.430600
    H    2.532822  -0.099253  -0.975955
}

set optking { frozen_dihedral = (" 3 1 2 4 ") }

set optking { dynamic_level = 1
 geom_maxiter = 250
 print_trajectory_xyz_file = True }

energy, wfn = optimize('B3LYP-D3', return_wfn=True)

import os
os.chdir(os.environ['HTMD_PSI4_WORKDIR'])

oeprop(wfn, 'DIPOLE', 'QUADRUPOLE', 'MULLIKEN_CHARGES')

with open('psi4out.xyz', 'w') as f:
    f.write('4 ' )
    f.write('%.12f\n' % energy)
    f.write(MOL.save_string_xyz())
--------------------------------------------------------------------------

    Molecular point group: c1
  Charge       = 0
  Multiplicity = 1
  Basis Set: CC-PVDZ
    Blend: CC-PVDZ
  Basis Set: (CC-PVDZ AUX)
    Blend: CC-PVDZ-JKFIT
  @DF-RKS Final Energy:  -151.54373118097251
    Total Energy =                       -151.5437311809725145
    Molecular point group: c1
  Basis Set: CC-PVDZ
    Blend: CC-PVDZ
  Basis Set: (CC-PVDZ AUX)
    Blend: CC-PVDZ-JKFIT
  Basis Set: CC-PVDZ
    Blend: CC-PVDZ
  Basis Set: (CC-PVDZ AUX)
    Blend: CC-PVDZ-JKFIT
  @DF-RKS Final Energy:  -151.54553626034959
    Total Energy =                       -151.5455362603495644
  Basis Set: CC-PVDZ
    Blend: CC-PVDZ
  Basis Set: (CC-PVDZ AUX)
    Blend: CC-PVDZ-JKFIT
  Basis Set: CC-PVDZ
    Blend: CC-PVDZ
  @DF-RKS Final Energy:  -151.54615638046832
    Total Energy =                       -151.5461563804683180
  Basis Set: (CC-PVDZ AUX)
    Blend: CC-PVDZ-JKFIT
  Basis Set: CC-PVDZ
    Blend: CC-PVDZ
  Basis Set: (CC-PVDZ AUX)
    Blend: CC-PVDZ-JKFIT
  @DF-RKS Final Energy:  -151.54618226138462
    Total Energy =                       -151.5461822613846437
  Basis Set: CC-PVDZ
    Blend: CC-PVDZ
  Basis Set: (CC-PVDZ AUX)
    Blend: CC-PVDZ-JKFIT
  Charge       = 0
  Multiplicity = 1
  Basis Set: CC-PVDZ
    Blend: CC-PVDZ
  Basis Set: (CC-PVDZ AUX)
    Blend: CC-PVDZ-JKFIT

    Orbital Energies [Eh]
    ---------------------

    Doubly Occupied:

       1A    -19.189943     2A    -19.189907     3A     -1.111947
       4A     -0.890427     5A     -0.551535     6A     -0.442466
       7A     -0.418361     8A     -0.320414     9A     -0.265796

  @DF-RKS Final Energy:  -151.54618416116566

   => Energetics <=

    Nuclear Repulsion Energy =             36.7254632991856411
    One-Electron Energy =                -281.3988746401528260
    Two-Electron Energy =                 107.5873840355454121
    DFT Exchange-Correlation Energy =     -14.4598488857438667
    Empirical Dispersion Energy =          -0.0003079700000000
    VV10 Nonlocal Energy =                  0.0000000000000000
    Total Energy =                       -151.5461841611656553
    Molecular point group: c1
  Basis Set: CC-PVDZ
    Blend: CC-PVDZ
  Basis Set: (CC-PVDZ AUX)
    Blend: CC-PVDZ-JKFIT

  -Total Gradient:
     Atom            X                  Y                   Z
    ------   -----------------  -----------------  -----------------
       1        0.000215015317    -0.004003635736     0.005321358368
       2        0.000181843599     0.006634855758    -0.000580688022
       3       -0.000155402100     0.002786034131    -0.004649608852
       4       -0.000241345754    -0.005416518529    -0.000089736181

  **** Optimization is complete! (in 5 steps) ****
    Final optimized geometry and variables:
    Molecular point group: c1

    Geometry (in Angstrom), charge = 0, multiplicity = 1:

    O            1.015278808870    -0.029390450395     0.066302966520
    O            2.460242083484    -0.088138363048    -0.022082591537
    H            0.738087374314    -0.835277707708    -0.408003040928
    H            2.617113733331    -0.079846478848    -0.984672334055

  Dipole Moment: [D]
     X:    -0.2031      Y:    -1.3460      Z:    -2.4249     Total:     2.7809

  Mulliken Charges: (a.u.)
   Center  Symbol    Alpha    Beta     Spin     Total
       1     O     4.08410  4.08410  0.00000 -0.16819
       2     O     4.08410  4.08410  0.00000 -0.16819
       3     H     0.41590  0.41590  0.00000  0.16819
       4     H     0.41590  0.41590  0.00000  0.16819

   Total alpha =  9.00000, Total beta =  9.00000, Total charge =  0.00000

*** Psi4 exiting successfully. Buy a developer a beer!
