                               Psi4 1.2.1 release

  ==> Input File <==

--------------------------------------------------------------------------
set_num_threads(1)
set_memory('5348 MB')

set { scf_mem_safety_factor 0.7 }

set { reference rks }
set { basis cc-pVDZ }

molecule MOL {
    0 1
    noreorient
    nocom
    symmetry c1
    O    1.014300  -0.002300   0.060500
    O    2.462400  -0.107500  -0.002400
    H    0.821200  -0.823600  -0.430600
    H    2.644541   0.353788   0.838358
}

set optking { frozen_dihedral = (" 3 1 2 4 ") }

energy, wfn = energy('B3LYP-D3', return_wfn=True)

import os
os.chdir(os.environ['HTMD_PSI4_WORKDIR'])

oeprop(wfn, 'DIPOLE', 'QUADRUPOLE', 'MULLIKEN_CHARGES')

with open('psi4out.xyz', 'w') as f:
    f.write('4 ' )
    f.write('%.12f\n' % energy)
    f.write(MOL.save_string_xyz())
--------------------------------------------------------------------------

    Molecular point group: c1

    Geometry (in Angstrom), charge = 0, multiplicity = 1:

       Center              X                  Y                   Z               Mass
    ------------   -----------------  -----------------  -----------------  -----------------
         O            1.014300000000    -0.002300000000     0.060500000000    15.994914619560
         O            2.462400000000    -0.107500000000    -0.002400000000    15.994914619560
         H            0.821200000000    -0.823600000000    -0.430600000000     1.007825032070
         H            2.644541000000     0.353788000000     0.838358000000     1.007825032070

  Charge       = 0
  Multiplicity = 1
  Basis Set: CC-PVDZ
    Blend: CC-PVDZ
  Basis Set: (CC-PVDZ AUX)
    Blend: CC-PVDZ-JKFIT

    Orbital Energies [Eh]
    ---------------------

    Doubly Occupied:

       1A    -19.185959     2A    -19.185918     3A     -1.109969
       4A     -0.886391     5A     -0.500623     6A     -0.498253
       7A     -0.399234     8A     -0.343171     9A     -0.247982

  @DF-RKS Final Energy:  -151.55004770405975

   => Energetics <=

    Nuclear Repulsion Energy =             36.7868707080849120
    One-Electron Energy =                -281.5738512400861282
    Two-Electron Energy =                 107.7003302774406706
    DFT Exchange-Correlation Energy =     -14.4630734894991981
    Empirical Dispersion Energy =          -0.0003239600000000
    VV10 Nonlocal Energy =                  0.0000000000000000
    Total Energy =                       -151.5500477040597502

  Dipole Moment: [D]
     X:    -0.0191      Y:    -0.6268      Z:     0.6089     Total:     0.8741

  Mulliken Charges: (a.u.)
   Center  Symbol    Alpha    Beta     Spin     Total
       1     O     4.09139  4.09139  0.00000 -0.18279
       2     O     4.09137  4.09137  0.00000 -0.18275
       3     H     0.40861  0.40861  0.00000  0.18279
       4     H     0.40863  0.40863  0.00000  0.18275

   Total alpha =  9.00000, Total beta =  9.00000, Total charge = -0.00000

*** Psi4 exiting successfully. Buy a developer a beer!
