                               Psi4 1.2.1 release

  ==> Input File <==

--------------------------------------------------------------------------
set_num_threads(1)
set_memory('5348 MB')

set { scf_mem_safety_factor 0.7 }

set { reference rks }
set { basis cc-pVDZ }

molecule MOL {
    0 1
    noreorient
    nocom
    symmetry c1
    O    1.141000   0.017000   0.083000
    C    2.558000   0.086000  -0.005000
    C    3.192000  -0.789000   1.067000
    O    4.610000  -0.719000   0.979000
    H    0.789000   0.590000  -0.620000
    H    2.874000   1.128000   0.115000
    H    2.871000  -0.243000  -1.001000
    H    2.876000  -1.830000   0.947000
    H    2.879000  -0.459000   2.064000
    H    4.935359  -0.529387   1.876259
}

set optking { frozen_dihedral = (" 2 3 4 10 ") }

energy, wfn = energy('B3LYP-D3', return_wfn=True)

import os
os.chdir(os.environ['HTMD_PSI4_WORKDIR'])

oeprop(wfn, 'DIPOLE', 'QUADRUPOLE', 'MULLIKEN_CHARGES')

with open('psi4out.xyz', 'w') as f:
    f.write('10 ' )
    f.write('%.12f\n' % energy)
    f.write(MOL.save_string_xyz())
--------------------------------------------------------------------------

    Molecular point group: c1

    Geometry (in Angstrom), charge = 0, multiplicity = 1:

       Center              X                  Y                   Z               Mass
    ------------   -----------------  -----------------  -----------------  -----------------
         O            1.141000000000     0.017000000000     0.083000000000    15.994914619560
         C            2.558000000000     0.086000000000    -0.005000000000    12.000000000000
         C            3.192000000000    -0.789000000000     1.067000000000    12.000000000000
         O            4.610000000000    -0.719000000000     0.979000000000    15.994914619560
         H            0.789000000000     0.590000000000    -0.620000000000     1.007825032070
         H            2.874000000000     1.128000000000     0.115000000000     1.007825032070
         H            2.871000000000    -0.243000000000    -1.001000000000     1.007825032070
         H            2.876000000000    -1.830000000000     0.947000000000     1.007825032070
         H            2.879000000000    -0.459000000000     2.064000000000     1.007825032070
         H            4.935359000000    -0.529387000000     1.876259000000     1.007825032070

  Charge       = 0
  Multiplicity = 1
  Basis Set: CC-PVDZ
    Blend: CC-PVDZ
  Basis Set: (CC-PVDZ AUX)
    Blend: CC-PVDZ-JKFIT

    Orbital Energies [Eh]
    ---------------------

    Doubly Occupied:

       1A    -19.132861     2A    -19.130635     3A    -10.226640
       4A    -10.224131     5A     -1.019177     6A     -1.008611
       7A     -0.731233     8A     -0.605623     9A     -0.525858
      10A     -0.489603    11A     -0.460266    12A     -0.418318
      13A     -0.395719    14A     -0.342614    15A     -0.321932
      16A     -0.267116    17A     -0.263216

  @DF-RKS Final Energy:  -230.25674455249873

   => Energetics <=

    Nuclear Repulsion Energy =            129.5295421684578514
    One-Electron Energy =                -570.8124516671706488
    Two-Electron Energy =                 235.5697724598772425
    DFT Exchange-Correlation Energy =     -24.5391772936631547
    Empirical Dispersion Energy =          -0.0044302200000000
    VV10 Nonlocal Energy =                  0.0000000000000000
    Total Energy =                       -230.2567445524987022

  Dipole Moment: [D]
     X:    -0.0127      Y:     1.1253      Z:     0.3588     Total:     1.1812

  Mulliken Charges: (a.u.)
   Center  Symbol    Alpha    Beta     Spin     Total
       1     O     4.14093  4.14093  0.00000 -0.28186
       2     C     2.93539  2.93539  0.00000  0.12923
       3     C     2.93754  2.93754  0.00000  0.12493
       4     O     4.14021  4.14021  0.00000 -0.28042
       5     H     0.42783  0.42783  0.00000  0.14434
       6     H     0.50270  0.50270  0.00000 -0.00539
       7     H     0.49763  0.49763  0.00000  0.00474
       8     H     0.49322  0.49322  0.00000  0.01356
       9     H     0.49759  0.49759  0.00000  0.00481
      10     H     0.42697  0.42697  0.00000  0.14606

   Total alpha = 17.00000, Total beta = 17.00000, Total charge = -0.00000

*** Psi4 exiting successfully. Buy a developer a beer!
