                               Psi4 1.2.1 release

  ==> Input File <==

--------------------------------------------------------------------------
set_num_threads(1)
set_memory('5348 MB')

set { scf_mem_safety_factor 0.7 }

set { reference rks }
set { basis cc-pVDZ }

molecule MOL {
    0 1
    noreorient
    nocom
    symmetry c1
    C    0.940800  -0.041500  -0.056200
    C    2.276600  -0.041500  -0.056200
    H    0.380900   0.578300  -0.749400
    H    0.380900  -0.661400   0.637000
    H    2.836500  -0.970922  -0.085414
    H    2.836500   0.887986  -0.026909
}

set optking { frozen_dihedral = (" 3 1 2 5 ") }

energy, wfn = energy('B3LYP-D3', return_wfn=True)

import os
os.chdir(os.environ['HTMD_PSI4_WORKDIR'])

oeprop(wfn, 'DIPOLE', 'QUADRUPOLE', 'MULLIKEN_CHARGES')

with open('psi4out.xyz', 'w') as f:
    f.write('6 ' )
    f.write('%.12f\n' % energy)
    f.write(MOL.save_string_xyz())
--------------------------------------------------------------------------

    Molecular point group: c1

    Geometry (in Angstrom), charge = 0, multiplicity = 1:

       Center              X                  Y                   Z               Mass
    ------------   -----------------  -----------------  -----------------  -----------------
         C            0.940800000000    -0.041500000000    -0.056200000000    12.000000000000
         C            2.276600000000    -0.041500000000    -0.056200000000    12.000000000000
         H            0.380900000000     0.578300000000    -0.749400000000     1.007825032070
         H            0.380900000000    -0.661400000000     0.637000000000     1.007825032070
         H            2.836500000000    -0.970922000000    -0.085414000000     1.007825032070
         H            2.836500000000     0.887986000000    -0.026909000000     1.007825032070

  Charge       = 0
  Multiplicity = 1
  Basis Set: CC-PVDZ
    Blend: CC-PVDZ
  Basis Set: (CC-PVDZ AUX)
    Blend: CC-PVDZ-JKFIT

    Orbital Energies [Eh]
    ---------------------

    Doubly Occupied:

       1A    -10.188834     2A    -10.188052     3A     -0.762307
       4A     -0.579436     5A     -0.458196     6A     -0.417618
       7A     -0.394188     8A     -0.225409

  @DF-RKS Final Energy:   -78.54176680419829

   => Energetics <=

    Nuclear Repulsion Energy =             33.3114079432770254
    One-Electron Energy =                -170.1189705445754043
    Two-Electron Energy =                  68.2145157087081770
    DFT Exchange-Correlation Energy =      -9.9478710116080951
    Empirical Dispersion Energy =          -0.0008489000000000
    VV10 Nonlocal Energy =                  0.0000000000000000
    Total Energy =                        -78.5417668041982893

  Dipole Moment: [D]
     X:     0.0000      Y:    -0.0000      Z:     0.0000     Total:     0.0000

  Mulliken Charges: (a.u.)
   Center  Symbol    Alpha    Beta     Spin     Total
       1     C     3.03109  3.03109  0.00000 -0.06217
       2     C     3.03109  3.03109  0.00000 -0.06217
       3     H     0.48446  0.48446  0.00000  0.03108
       4     H     0.48445  0.48445  0.00000  0.03109
       5     H     0.48446  0.48446  0.00000  0.03108
       6     H     0.48445  0.48445  0.00000  0.03109

   Total alpha =  8.00000, Total beta =  8.00000, Total charge =  0.00000

*** Psi4 exiting successfully. Buy a developer a beer!
