                               Psi4 1.2.1 release

  ==> Input File <==

--------------------------------------------------------------------------
set_num_threads(1)
set_memory('5348 MB')

set { scf_mem_safety_factor 0.7 }

set { reference rks }
set { basis cc-pVDZ }

molecule MOL {
    0 1
    noreorient
    nocom
    symmetry c1
    O    1.141000   0.017000   0.083000
    C    2.558000   0.086000  -0.005000
    C    3.192000  -0.789000   1.067000
    O    4.327129  -0.135891   1.622247
    H    0.789000   0.590000  -0.620000
    H    2.874000   1.128000   0.115000
    H    2.871000  -0.243000  -1.001000
    H    3.502264  -1.749026   0.642709
    H    2.471843  -0.995744   1.866693
    H    4.690729  -0.735539   2.296860
}

set optking { frozen_dihedral = (" 1 2 3 4 ") }

energy, wfn = energy('B3LYP-D3', return_wfn=True)

import os
os.chdir(os.environ['HTMD_PSI4_WORKDIR'])

oeprop(wfn, 'DIPOLE', 'QUADRUPOLE', 'MULLIKEN_CHARGES')

with open('psi4out.xyz', 'w') as f:
    f.write('10 ' )
    f.write('%.12f\n' % energy)
    f.write(MOL.save_string_xyz())
--------------------------------------------------------------------------

    Molecular point group: c1

    Geometry (in Angstrom), charge = 0, multiplicity = 1:

       Center              X                  Y                   Z               Mass
    ------------   -----------------  -----------------  -----------------  -----------------
         O            1.141000000000     0.017000000000     0.083000000000    15.994914619560
         C            2.558000000000     0.086000000000    -0.005000000000    12.000000000000
         C            3.192000000000    -0.789000000000     1.067000000000    12.000000000000
         O            4.327129000000    -0.135891000000     1.622247000000    15.994914619560
         H            0.789000000000     0.590000000000    -0.620000000000     1.007825032070
         H            2.874000000000     1.128000000000     0.115000000000     1.007825032070
         H            2.871000000000    -0.243000000000    -1.001000000000     1.007825032070
         H            3.502264000000    -1.749026000000     0.642709000000     1.007825032070
         H            2.471843000000    -0.995744000000     1.866693000000     1.007825032070
         H            4.690729000000    -0.735539000000     2.296860000000     1.007825032070

  Charge       = 0
  Multiplicity = 1
  Basis Set: CC-PVDZ
    Blend: CC-PVDZ
  Basis Set: (CC-PVDZ AUX)
    Blend: CC-PVDZ-JKFIT

    Orbital Energies [Eh]
    ---------------------

    Doubly Occupied:

       1A    -19.130047     2A    -19.130011     3A    -10.225460
       4A    -10.225270     5A     -1.018015     6A     -1.006852
       7A     -0.732483     8A     -0.603328     9A     -0.523769
      10A     -0.497575    11A     -0.450697    12A     -0.411550
      13A     -0.400498    14A     -0.348261    15A     -0.320076
      16A     -0.264959    17A     -0.259152

  @DF-RKS Final Energy:  -230.25412725773663

   => Energetics <=

    Nuclear Repulsion Energy =            129.7499098414243974
    One-Electron Energy =                -571.2779199871210949
    Two-Electron Energy =                 235.8193772690035814
    DFT Exchange-Correlation Energy =     -24.5412068710434745
    Empirical Dispersion Energy =          -0.0042875100000000
    VV10 Nonlocal Energy =                  0.0000000000000000
    Total Energy =                       -230.2541272577366271

  Dipole Moment: [D]
     X:     0.2409      Y:    -0.5065      Z:    -0.5580     Total:     0.7912

  Mulliken Charges: (a.u.)
   Center  Symbol    Alpha    Beta     Spin     Total
       1     O     4.14053  4.14053  0.00000 -0.28107
       2     C     2.93462  2.93462  0.00000  0.13076
       3     C     2.93480  2.93480  0.00000  0.13040
       4     O     4.14077  4.14077  0.00000 -0.28153
       5     H     0.42918  0.42918  0.00000  0.14165
       6     H     0.49520  0.49520  0.00000  0.00959
       7     H     0.50040  0.50040  0.00000 -0.00080
       8     H     0.50026  0.50026  0.00000 -0.00052
       9     H     0.49511  0.49511  0.00000  0.00977
      10     H     0.42913  0.42913  0.00000  0.14175

   Total alpha = 17.00000, Total beta = 17.00000, Total charge = -0.00000

*** Psi4 exiting successfully. Buy a developer a beer!
