                               Psi4 1.2.1 release

  ==> Input File <==

--------------------------------------------------------------------------
set_num_threads(1)
set_memory('5348 MB')

set { scf_mem_safety_factor 0.7 }

set { reference rks }
set { basis cc-pVDZ }

molecule MOL {
    0 1
    noreorient
    nocom
    symmetry c1
    C    0.940800  -0.041500  -0.056200
    C    2.276600  -0.041500  -0.056200
    H    0.380900   0.578300  -0.749400
    H    0.380900  -0.661400   0.637000
    H    2.836500  -0.734700  -0.676000
    H    2.836500   0.651700   0.563700
}

set optking { frozen_dihedral = (" 3 1 2 5 ") }

energy, wfn = energy('B3LYP-D3', return_wfn=True)

import os
os.chdir(os.environ['HTMD_PSI4_WORKDIR'])

oeprop(wfn, 'DIPOLE', 'QUADRUPOLE', 'MULLIKEN_CHARGES')

with open('psi4out.xyz', 'w') as f:
    f.write('6 ' )
    f.write('%.12f\n' % energy)
    f.write(MOL.save_string_xyz())
--------------------------------------------------------------------------

    Molecular point group: c1

    Geometry (in Angstrom), charge = 0, multiplicity = 1:

       Center              X                  Y                   Z               Mass
    ------------   -----------------  -----------------  -----------------  -----------------
         C            0.940800000000    -0.041500000000    -0.056200000000    12.000000000000
         C            2.276600000000    -0.041500000000    -0.056200000000    12.000000000000
         H            0.380900000000     0.578300000000    -0.749400000000     1.007825032070
         H            0.380900000000    -0.661400000000     0.637000000000     1.007825032070
         H            2.836500000000    -0.734700000000    -0.676000000000     1.007825032070
         H            2.836500000000     0.651700000000     0.563700000000     1.007825032070

  Charge       = 0
  Multiplicity = 1
  Basis Set: CC-PVDZ
    Blend: CC-PVDZ
  Basis Set: (CC-PVDZ AUX)
    Blend: CC-PVDZ-JKFIT

    Orbital Energies [Eh]
    ---------------------

    Doubly Occupied:

       1A    -10.190838     2A    -10.190070     3A     -0.768317
       4A     -0.581277     5A     -0.435793     6A     -0.434845
       7A     -0.421442     8A     -0.164583

  @DF-RKS Final Energy:   -78.43415200494483

   => Energetics <=

    Nuclear Repulsion Energy =             33.3054704613821144
    One-Electron Energy =                -169.9495003718544694
    Two-Electron Energy =                  68.1530277380107776
    DFT Exchange-Correlation Energy =      -9.9423182924832645
    Empirical Dispersion Energy =          -0.0008315400000000
    VV10 Nonlocal Energy =                  0.0000000000000000
    Total Energy =                        -78.4341520049448206

  Dipole Moment: [D]
     X:    -0.0000      Y:    -0.0001      Z:    -0.0000     Total:     0.0001

  Mulliken Charges: (a.u.)
   Center  Symbol    Alpha    Beta     Spin     Total
       1     C     3.04331  3.04331  0.00000 -0.08662
       2     C     3.04331  3.04331  0.00000 -0.08662
       3     H     0.47835  0.47835  0.00000  0.04330
       4     H     0.47834  0.47834  0.00000  0.04332
       5     H     0.47835  0.47835  0.00000  0.04331
       6     H     0.47834  0.47834  0.00000  0.04331

   Total alpha =  8.00000, Total beta =  8.00000, Total charge =  0.00000

*** Psi4 exiting successfully. Buy a developer a beer!
