                               Psi4 1.2.1 release

  ==> Input File <==

--------------------------------------------------------------------------
set_num_threads(4)
set_memory('3000 MB')

set { scf_mem_safety_factor 0.7 }

set { reference rks }
set { basis 6-31G* }

molecule MOL {
    1 1
    noreorient
    nocom
    symmetry c1
    C   -0.000000  -0.000000  -0.177864
    C    0.036678   1.219374   0.524165
    C    0.031765   1.213120   1.915444
    C    0.000000   0.000000   2.610107
    C   -0.031765  -1.213120   1.915444
    C   -0.036678  -1.219375   0.524165
    C   -0.000000   0.000000  -1.644734
    H    0.018170   2.164705  -0.010854
    H    0.042402   2.152895   2.457886
    H    0.000000   0.000000   3.695756
    H   -0.042402  -2.152895   2.457886
    H   -0.018170  -2.164705  -0.010853
    N    0.980419  -0.606060  -2.308460
    N   -0.980419   0.606060  -2.308460
    H   -1.075890   0.555834  -3.315997
    H   -1.631576   1.201131  -1.813316
    H    1.631576  -1.201131  -1.813317
    H    1.075890  -0.555834  -3.315997
}

set optking { frozen_dihedral = (" 2 1 7 13 ") }

set optking { dynamic_level = 1
 geom_maxiter = 250
 print_trajectory_xyz_file = True }

energy, wfn = optimize('B3LYP-D3', return_wfn=True)

import os
os.chdir(os.environ['HTMD_PSI4_WORKDIR'])

oeprop(wfn, 'DIPOLE', 'QUADRUPOLE', 'MULLIKEN_CHARGES')

with open('psi4out.xyz', 'w') as f:
    f.write('18 ' )
    f.write('%.12f\n' % energy)
    f.write(MOL.save_string_xyz())
--------------------------------------------------------------------------

    Molecular point group: c1
  Charge       = 1
  Multiplicity = 1
  Basis Set: 6-31G*
    Blend: 6-31G*
  Basis Set: (6-31G* AUX)
    Blend: CC-PVDZ-JKFIT
  @DF-RKS Final Energy:  -381.46389333096312
    Total Energy =                       -381.4638933309631170
    Molecular point group: c1
  Basis Set: 6-31G*
    Blend: 6-31G*
  Basis Set: (6-31G* AUX)
    Blend: CC-PVDZ-JKFIT
  Basis Set: 6-31G*
    Blend: 6-31G*
  Basis Set: (6-31G* AUX)
    Blend: CC-PVDZ-JKFIT
  @DF-RKS Final Energy:  -381.46711217571726
    Total Energy =                       -381.4671121757172045
  Basis Set: 6-31G*
    Blend: 6-31G*
  Basis Set: (6-31G* AUX)
    Blend: CC-PVDZ-JKFIT
  Basis Set: 6-31G*
    Blend: 6-31G*
  @DF-RKS Final Energy:  -381.46803160615161
    Total Energy =                       -381.4680316061516123
  @DF-RKS Final Energy:  -381.46816163533236
    Total Energy =                       -381.4681616353323648
  @DF-RKS Final Energy:  -381.46817029302190
    Total Energy =                       -381.4681702930218421
  Basis Set: (6-31G* AUX)
    Blend: CC-PVDZ-JKFIT
  Basis Set: 6-31G*
    Blend: 6-31G*
  Basis Set: (6-31G* AUX)
    Blend: CC-PVDZ-JKFIT
  @DF-RKS Final Energy:  -381.46817307894713
    Total Energy =                       -381.4681730789471317
  Basis Set: 6-31G*
    Blend: 6-31G*
  Basis Set: (6-31G* AUX)
    Blend: CC-PVDZ-JKFIT
  Charge       = 1
  Multiplicity = 1
  Basis Set: 6-31G*
    Blend: 6-31G*
  Basis Set: (6-31G* AUX)
    Blend: CC-PVDZ-JKFIT

    Orbital Energies [Eh]
    ---------------------

    Doubly Occupied:

       1A    -14.571924     2A    -14.571815     3A    -10.499430
       4A    -10.370472     5A    -10.352841     6A    -10.352161
       7A    -10.338342     8A    -10.337199     9A    -10.337070
      10A     -1.186780    11A     -1.095710    12A     -1.011653
      13A     -0.924367    14A     -0.898727    15A     -0.844955
      16A     -0.786703    17A     -0.769694    18A     -0.748489
      19A     -0.730009    20A     -0.689633    21A     -0.668236
      22A     -0.621288    23A     -0.620333    24A     -0.581039
      25A     -0.576059    26A     -0.570059    27A     -0.517415
      28A     -0.501064    29A     -0.494909    30A     -0.476005
      31A     -0.408464    32A     -0.402211

  @DF-RKS Final Energy:  -381.46817322226832

   => Energetics <=

    Nuclear Repulsion Energy =            416.7551171608695313
    One-Electron Energy =               -1328.7892587136834663
    Two-Electron Energy =                 574.9828955795750289
    DFT Exchange-Correlation Energy =     -44.4050017690294609
    Empirical Dispersion Energy =          -0.0119254800000000
    VV10 Nonlocal Energy =                  0.0000000000000000
    Total Energy =                       -381.4681732222683763
    Molecular point group: c1
  Basis Set: 6-31G*
    Blend: 6-31G*
  Basis Set: (6-31G* AUX)
    Blend: CC-PVDZ-JKFIT

  -Total Gradient:
     Atom            X                  Y                   Z
    ------   -----------------  -----------------  -----------------
       1       -0.005314066178     0.002040929205    -0.000147567961
       2        0.004364612733    -0.000218095526     0.000108888507
       3        0.000020936091     0.000002996096     0.000002090172
       4        0.000001396925     0.000001382061    -0.000002532887
       5       -0.000020226019    -0.000003123160    -0.000000654962
       6        0.000017796718    -0.000003962910     0.000000651174
       7       -0.001587856768    -0.005693204979    -0.000027566950
       8       -0.000004413245    -0.000002145900     0.000001938812
       9       -0.000003865123    -0.000000817333     0.000000881960
      10        0.000001010049     0.000000281047    -0.000000077109
      11        0.000004680372     0.000000400196     0.000001858740
      12       -0.000001477233     0.000003124202     0.000001252684
      13        0.002512187826     0.003899488512     0.000069713420
      14        0.000000840940    -0.000035674950     0.000015542942
      15        0.000000929233     0.000012320251    -0.000009470916
      16       -0.000008426056     0.000009219128    -0.000002478154
      17       -0.000001340965    -0.000000979669    -0.000003878784
      18       -0.000002539336    -0.000004965205    -0.000011269599

  **** Optimization is complete! (in 7 steps) ****
    Final optimized geometry and variables:
    Molecular point group: c1

    Geometry (in Angstrom), charge = 1, multiplicity = 1:

    C           -0.069124190434    -0.013257348084    -0.177251785082
    C           -0.025149154803     1.211011091884     0.510482198331
    C            0.023093641594     1.208549226584     1.902585871644
    C            0.026861822349    -0.002012532221     2.601403323941
    C           -0.003542572015    -1.218898045710     1.913307537401
    C           -0.032784983428    -1.231813586344     0.521156343393
    C           -0.030892133415    -0.013198238367    -1.650088277630
    H           -0.008749585249     2.148676153023    -0.037818497277
    H            0.066121502883     2.150077776022     2.440562522855
    H            0.059135269682     0.002500878192     3.686558404188
    H           -0.002918238304    -2.156039044342     2.460559778090
    H           -0.063665724684    -2.174414597395    -0.018395473021
    N            0.956866473684    -0.641240256491    -2.274723836590
    N           -0.944616848906     0.672352020844    -2.325124471956
    H           -0.917528605526     0.797629618885    -3.331100258082
    H           -1.730607976891     1.072678101918    -1.828513979380
    H            1.691740807019    -1.074054845636    -1.729546706773
    H            1.005760496443    -0.738547372763    -3.283051694051

  Dipole Moment: [D]
     X:     0.0509      Y:     0.0062      Z:    -6.0787     Total:     6.0789

  Mulliken Charges: (a.u.)
   Center  Symbol    Alpha    Beta     Spin     Total
       1     C     2.97697  2.97697  0.00000  0.04606
       2     C     3.07383  3.07383  0.00000 -0.14765
       3     C     3.06215  3.06215  0.00000 -0.12430
       4     C     3.05246  3.05246  0.00000 -0.10493
       5     C     3.06310  3.06310  0.00000 -0.12620
       6     C     3.07839  3.07839  0.00000 -0.15678
       7     C     2.73633  2.73633  0.00000  0.52734
       8     H     0.41334  0.41334  0.00000  0.17333
       9     H     0.40627  0.40627  0.00000  0.18747
      10     H     0.40523  0.40523  0.00000  0.18954
      11     H     0.40629  0.40629  0.00000  0.18741
      12     H     0.41349  0.41349  0.00000  0.17302
      13     N     3.85212  3.85212  0.00000 -0.70423
      14     N     3.85414  3.85414  0.00000 -0.70827
      15     H     0.30546  0.30546  0.00000  0.38909
      16     H     0.29747  0.29747  0.00000  0.40505
      17     H     0.29752  0.29752  0.00000  0.40497
      18     H     0.30546  0.30546  0.00000  0.38909

   Total alpha = 32.00000, Total beta = 32.00000, Total charge =  1.00000

*** Psi4 exiting successfully. Buy a developer a beer!
