                               Psi4 1.2.1 release

  ==> Input File <==

--------------------------------------------------------------------------
set_num_threads(4)
set_memory('3000 MB')

set { scf_mem_safety_factor 0.7 }

set { reference rks }
set { basis 6-31G* }

molecule MOL {
    1 1
    noreorient
    nocom
    symmetry c1
    C   -0.000000  -0.000000  -0.177864
    C    0.036678   1.219374   0.524165
    C    0.031765   1.213120   1.915444
    C    0.000000   0.000000   2.610107
    C   -0.031765  -1.213120   1.915444
    C   -0.036678  -1.219375   0.524165
    C   -0.000000   0.000000  -1.644734
    H    0.018170   2.164705  -0.010854
    H    0.042402   2.152895   2.457886
    H    0.000000   0.000000   3.695756
    H   -0.042402  -2.152895   2.457886
    H   -0.018170  -2.164705  -0.010853
    N    0.034654   1.152098  -2.308460
    N   -0.034654  -1.152097  -2.308461
    H    0.056579  -1.209665  -3.315997
    H   -0.224422  -2.013552  -1.813317
    H    0.224422   2.013552  -1.813316
    H   -0.056579   1.209666  -3.315997
}

set optking { frozen_dihedral = (" 2 1 7 13 ") }

set optking { dynamic_level = 1
 geom_maxiter = 250
 print_trajectory_xyz_file = True }

energy, wfn = optimize('B3LYP-D3', return_wfn=True)

import os
os.chdir(os.environ['HTMD_PSI4_WORKDIR'])

oeprop(wfn, 'DIPOLE', 'QUADRUPOLE', 'MULLIKEN_CHARGES')

with open('psi4out.xyz', 'w') as f:
    f.write('18 ' )
    f.write('%.12f\n' % energy)
    f.write(MOL.save_string_xyz())
--------------------------------------------------------------------------

    Molecular point group: c1
  Charge       = 1
  Multiplicity = 1
  Basis Set: 6-31G*
    Blend: 6-31G*
  Basis Set: (6-31G* AUX)
    Blend: CC-PVDZ-JKFIT
  @DF-RKS Final Energy:  -381.46394986785384
    Total Energy =                       -381.4639498678538985
    Molecular point group: c1
  Basis Set: 6-31G*
    Blend: 6-31G*
  Basis Set: (6-31G* AUX)
    Blend: CC-PVDZ-JKFIT
  Basis Set: 6-31G*
    Blend: 6-31G*
  Basis Set: (6-31G* AUX)
    Blend: CC-PVDZ-JKFIT
  @DF-RKS Final Energy:  -381.46533208357170
    Total Energy =                       -381.4653320835717523
  Basis Set: 6-31G*
    Blend: 6-31G*
  Basis Set: (6-31G* AUX)
    Blend: CC-PVDZ-JKFIT
  Basis Set: 6-31G*
    Blend: 6-31G*
  @DF-RKS Final Energy:  -381.46580343256176
    Total Energy =                       -381.4658034325616995
  @DF-RKS Final Energy:  -381.46583616302485
    Total Energy =                       -381.4658361630247896
  @DF-RKS Final Energy:  -381.46585506543374
    Total Energy =                       -381.4658550654337432
  @DF-RKS Final Energy:  -381.46586558216092
    Total Energy =                       -381.4658655821609159
  @DF-RKS Final Energy:  -381.46585506543289
    Total Energy =                       -381.4658550654328906
  @DF-RKS Final Energy:  -381.46585506543283
    Total Energy =                       -381.4658550654328906
  @DF-RKS Final Energy:  -381.46585791090553
    Total Energy =                       -381.4658579109054699
  Basis Set: (6-31G* AUX)
    Blend: CC-PVDZ-JKFIT
  Basis Set: 6-31G*
    Blend: 6-31G*
  Basis Set: (6-31G* AUX)
    Blend: CC-PVDZ-JKFIT
  @DF-RKS Final Energy:  -381.46585905396893
    Total Energy =                       -381.4658590539688703
  Basis Set: 6-31G*
    Blend: 6-31G*
  Basis Set: (6-31G* AUX)
    Blend: CC-PVDZ-JKFIT
  Charge       = 1
  Multiplicity = 1
  Basis Set: 6-31G*
    Blend: 6-31G*
  Basis Set: (6-31G* AUX)
    Blend: CC-PVDZ-JKFIT

    Orbital Energies [Eh]
    ---------------------

    Doubly Occupied:

       1A    -14.564908     2A    -14.564755     3A    -10.498692
       4A    -10.378667     5A    -10.361714     6A    -10.361643
       7A    -10.346562     8A    -10.342996     9A    -10.342954
      10A     -1.183278    11A     -1.088959    12A     -1.017473
      13A     -0.928929    14A     -0.906334    15A     -0.849074
      16A     -0.787412    17A     -0.776814    18A     -0.739996
      19A     -0.735928    20A     -0.686176    21A     -0.669510
      22A     -0.632424    23A     -0.609145    24A     -0.604289
      25A     -0.582583    26A     -0.578366    27A     -0.518386
      28A     -0.510210    29A     -0.501775    30A     -0.470103
      31A     -0.413563    32A     -0.408131

  @DF-RKS Final Energy:  -381.46585997146195

   => Energetics <=

    Nuclear Repulsion Energy =            416.4917106897317467
    One-Electron Energy =               -1328.0423932206622339
    Two-Electron Energy =                 574.5052788872088740
    DFT Exchange-Correlation Energy =     -44.4089931577402126
    Empirical Dispersion Energy =          -0.0114631700000000
    VV10 Nonlocal Energy =                  0.0000000000000000
    Total Energy =                       -381.4658599714618958
    Molecular point group: c1
  Basis Set: 6-31G*
    Blend: 6-31G*
  Basis Set: (6-31G* AUX)
    Blend: CC-PVDZ-JKFIT

  -Total Gradient:
     Atom            X                  Y                   Z
    ------   -----------------  -----------------  -----------------
       1       -0.005395666033     0.000182059101     0.000047045854
       2        0.002612981469    -0.000059741381     0.000057186501
       3       -0.000024241373    -0.000014150550     0.000003104165
       4        0.000018108939     0.000002374373    -0.000032473509
       5        0.000026333438     0.000016450958     0.000003348140
       6        0.000045154963    -0.000029837899    -0.000003141465
       7        0.005619449950    -0.000226577350    -0.000014582658
       8       -0.000064258574    -0.000013820374     0.000007401132
       9        0.000020524028     0.000002208720    -0.000000011440
      10        0.000008787908    -0.000001345621    -0.000007229641
      11        0.000001445615    -0.000001676516    -0.000004651914
      12        0.000016529179     0.000017410815     0.000005071999
      13       -0.002937204495     0.000173417916    -0.000098887573
      14       -0.000032910174    -0.000075006747     0.000029958070
      15        0.000026029670     0.000015795111     0.000025138374
      16       -0.000076832834     0.000039976675    -0.000040461168
      17        0.000127668943    -0.000010259190    -0.000014839318
      18        0.000007128877    -0.000016988331     0.000045646650

  **** Optimization is complete! (in 4 steps) ****
    Final optimized geometry and variables:
    Molecular point group: c1

    Geometry (in Angstrom), charge = 1, multiplicity = 1:

    C           -0.027240964878     0.000523305519    -0.176501864836
    C           -0.000230878423     1.212439134848     0.542968346686
    C            0.008839027462     1.209889918244     1.932603032236
    C           -0.000794996155     0.000127185094     2.631381977542
    C           -0.015933852867    -1.209511185311     1.932548191729
    C           -0.021060124457    -1.211743062043     0.542865356485
    C            0.007446485801    -0.000421173975    -1.648352385149
    H           -0.016351026169     2.175462236584     0.042304516629
    H            0.021818629995     2.152420970976     2.469859783999
    H            0.006762304206     0.000002603618     3.716890830934
    H           -0.015512979385    -2.152196408343     2.469687764464
    H           -0.003800646563    -2.174699721261     0.042140459905
    N            0.065024571920     1.139827436506    -2.335335681203
    N           -0.061183619066    -1.139062916917    -2.336239230275
    H           -0.028032167006    -1.160428971103    -3.347720864758
    H           -0.203679438116    -2.025714383109    -1.876452669939
    H            0.213635683019     2.025005342283    -1.874406180706
    H            0.070322568731     1.158073749960    -3.347443660364

  Dipole Moment: [D]
     X:     0.1038      Y:    -0.0124      Z:    -5.4809     Total:     5.4819

  Mulliken Charges: (a.u.)
   Center  Symbol    Alpha    Beta     Spin     Total
       1     C     2.92437  2.92437  0.00000  0.15126
       2     C     3.08716  3.08716  0.00000 -0.17432
       3     C     3.06133  3.06133  0.00000 -0.12265
       4     C     3.05128  3.05128  0.00000 -0.10257
       5     C     3.06137  3.06137  0.00000 -0.12273
       6     C     3.08661  3.08661  0.00000 -0.17321
       7     C     2.70563  2.70563  0.00000  0.58875
       8     H     0.42194  0.42194  0.00000  0.15612
       9     H     0.40493  0.40493  0.00000  0.19015
      10     H     0.40262  0.40262  0.00000  0.19476
      11     H     0.40492  0.40492  0.00000  0.19016
      12     H     0.42218  0.42218  0.00000  0.15564
      13     N     3.87747  3.87747  0.00000 -0.75493
      14     N     3.87774  3.87774  0.00000 -0.75547
      15     H     0.30596  0.30596  0.00000  0.38808
      16     H     0.29900  0.29900  0.00000  0.40200
      17     H     0.29942  0.29942  0.00000  0.40116
      18     H     0.30609  0.30609  0.00000  0.38782

   Total alpha = 32.00000, Total beta = 32.00000, Total charge =  1.00000

*** Psi4 exiting successfully. Buy a developer a beer!
