                               Psi4 1.2.1 release

  ==> Input File <==

--------------------------------------------------------------------------
set_num_threads(1)
set_memory('5348 MB')

set { scf_mem_safety_factor 0.7 }

set { reference rks }
set { basis cc-pVDZ }

molecule MOL {
    0 1
    noreorient
    nocom
    symmetry c1
    O    1.141000   0.017000   0.083000
    C    2.558000   0.086000  -0.005000
    C    3.192000  -0.789000   1.067000
    O    4.610000  -0.719000   0.979000
    H    0.789000   0.590000  -0.620000
    H    2.874000   1.128000   0.115000
    H    2.871000  -0.243000  -1.001000
    H    2.876000  -1.830000   0.947000
    H    2.879000  -0.459000   2.064000
    H    4.956862  -1.010246   1.840248
}

set optking { frozen_dihedral = (" 2 3 4 10 ") }

energy, wfn = energy('B3LYP-D3', return_wfn=True)

import os
os.chdir(os.environ['HTMD_PSI4_WORKDIR'])

oeprop(wfn, 'DIPOLE', 'QUADRUPOLE', 'MULLIKEN_CHARGES')

with open('psi4out.xyz', 'w') as f:
    f.write('10 ' )
    f.write('%.12f\n' % energy)
    f.write(MOL.save_string_xyz())
--------------------------------------------------------------------------

    Molecular point group: c1

    Geometry (in Angstrom), charge = 0, multiplicity = 1:

       Center              X                  Y                   Z               Mass
    ------------   -----------------  -----------------  -----------------  -----------------
         O            1.141000000000     0.017000000000     0.083000000000    15.994914619560
         C            2.558000000000     0.086000000000    -0.005000000000    12.000000000000
         C            3.192000000000    -0.789000000000     1.067000000000    12.000000000000
         O            4.610000000000    -0.719000000000     0.979000000000    15.994914619560
         H            0.789000000000     0.590000000000    -0.620000000000     1.007825032070
         H            2.874000000000     1.128000000000     0.115000000000     1.007825032070
         H            2.871000000000    -0.243000000000    -1.001000000000     1.007825032070
         H            2.876000000000    -1.830000000000     0.947000000000     1.007825032070
         H            2.879000000000    -0.459000000000     2.064000000000     1.007825032070
         H            4.956862000000    -1.010246000000     1.840248000000     1.007825032070

  Charge       = 0
  Multiplicity = 1
  Basis Set: CC-PVDZ
    Blend: CC-PVDZ
  Basis Set: (CC-PVDZ AUX)
    Blend: CC-PVDZ-JKFIT

    Orbital Energies [Eh]
    ---------------------

    Doubly Occupied:

       1A    -19.131858     2A    -19.131413     3A    -10.226375
       4A    -10.225756     5A     -1.018865     6A     -1.008588
       7A     -0.732112     8A     -0.603928     9A     -0.526012
      10A     -0.482994    11A     -0.470341    12A     -0.413306
      13A     -0.395215    14A     -0.348756    15A     -0.319590
      16A     -0.264568    17A     -0.263501

  @DF-RKS Final Energy:  -230.25711793500190

   => Energetics <=

    Nuclear Repulsion Energy =            129.4555882630281474
    One-Electron Energy =                -570.6662736651348951
    Two-Electron Energy =                 235.4968555210331829
    DFT Exchange-Correlation Energy =     -24.5388772739283567
    Empirical Dispersion Energy =          -0.0044107800000000
    VV10 Nonlocal Energy =                  0.0000000000000000
    Total Energy =                       -230.2571179350019008

  Dipole Moment: [D]
     X:    -0.0032      Y:     0.4311      Z:     0.2601     Total:     0.5035

  Mulliken Charges: (a.u.)
   Center  Symbol    Alpha    Beta     Spin     Total
       1     O     4.14054  4.14054  0.00000 -0.28107
       2     C     2.93605  2.93605  0.00000  0.12789
       3     C     2.93667  2.93667  0.00000  0.12667
       4     O     4.14059  4.14059  0.00000 -0.28118
       5     H     0.42741  0.42741  0.00000  0.14518
       6     H     0.49932  0.49932  0.00000  0.00137
       7     H     0.49747  0.49747  0.00000  0.00507
       8     H     0.49682  0.49682  0.00000  0.00635
       9     H     0.49808  0.49808  0.00000  0.00385
      10     H     0.42706  0.42706  0.00000  0.14588

   Total alpha = 17.00000, Total beta = 17.00000, Total charge = -0.00000

*** Psi4 exiting successfully. Buy a developer a beer!
