                               Psi4 1.2.1 release

  ==> Input File <==

--------------------------------------------------------------------------
set_num_threads(1)
set_memory('5348 MB')

set { scf_mem_safety_factor 0.7 }

set { reference rks }
set { basis cc-pVDZ }

molecule MOL {
    0 1
    noreorient
    nocom
    symmetry c1
    O    1.050400   0.042900  -0.048100
    C    2.474100   0.047400  -0.029000
    C    3.002600  -1.068900  -0.932000
    N    4.462700  -1.072400  -1.006800
    H    0.760400   0.728400   0.578000
    H    2.809900  -0.097900   1.003200
    H    2.817400   1.026800  -0.378600
    H    2.581000  -0.963300  -1.938400
    H    2.653800  -2.036400  -0.553400
    H    4.768654  -0.356941  -1.665581
    H    4.768909  -1.962430  -1.399654
}

set optking { frozen_dihedral = (" 2 3 4 10 ") }

energy, wfn = energy('B3LYP-D3', return_wfn=True)

import os
os.chdir(os.environ['HTMD_PSI4_WORKDIR'])

oeprop(wfn, 'DIPOLE', 'QUADRUPOLE', 'MULLIKEN_CHARGES')

with open('psi4out.xyz', 'w') as f:
    f.write('11 ' )
    f.write('%.12f\n' % energy)
    f.write(MOL.save_string_xyz())
--------------------------------------------------------------------------

    Molecular point group: c1

    Geometry (in Angstrom), charge = 0, multiplicity = 1:

       Center              X                  Y                   Z               Mass
    ------------   -----------------  -----------------  -----------------  -----------------
         O            1.050400000000     0.042900000000    -0.048100000000    15.994914619560
         C            2.474100000000     0.047400000000    -0.029000000000    12.000000000000
         C            3.002600000000    -1.068900000000    -0.932000000000    12.000000000000
         N            4.462700000000    -1.072400000000    -1.006800000000    14.003074004780
         H            0.760400000000     0.728400000000     0.578000000000     1.007825032070
         H            2.809900000000    -0.097900000000     1.003200000000     1.007825032070
         H            2.817400000000     1.026800000000    -0.378600000000     1.007825032070
         H            2.581000000000    -0.963300000000    -1.938400000000     1.007825032070
         H            2.653800000000    -2.036400000000    -0.553400000000     1.007825032070
         H            4.768654000000    -0.356941000000    -1.665581000000     1.007825032070
         H            4.768909000000    -1.962430000000    -1.399654000000     1.007825032070

  Charge       = 0
  Multiplicity = 1
  Basis Set: CC-PVDZ
    Blend: CC-PVDZ
  Basis Set: (CC-PVDZ AUX)
    Blend: CC-PVDZ-JKFIT

    Orbital Energies [Eh]
    ---------------------

    Doubly Occupied:

       1A    -19.125268     2A    -14.305486     3A    -10.220981
       4A    -10.201799     5A     -1.007675     6A     -0.876833
       7A     -0.711372     8A     -0.594895     9A     -0.504279
      10A     -0.490238    11A     -0.447515    12A     -0.418956
      13A     -0.390831    14A     -0.356851    15A     -0.323129
      16A     -0.258886    17A     -0.232619

  @DF-RKS Final Energy:  -210.39134894645443

   => Energetics <=

    Nuclear Repulsion Energy =            130.3389792595722270
    One-Electron Energy =                -543.6434320050288989
    Two-Electron Energy =                 226.4044326501726800
    DFT Exchange-Correlation Energy =     -23.4864832611704273
    Empirical Dispersion Energy =          -0.0048455900000000
    VV10 Nonlocal Energy =                  0.0000000000000000
    Total Energy =                       -210.3913489464544284

  Dipole Moment: [D]
     X:     0.5096      Y:     0.6372      Z:    -0.3652     Total:     0.8939

  Mulliken Charges: (a.u.)
   Center  Symbol    Alpha    Beta     Spin     Total
       1     O     4.14020  4.14020  0.00000 -0.28040
       2     C     2.92566  2.92566  0.00000  0.14868
       3     C     2.98957  2.98957  0.00000  0.02085
       4     N     3.59192  3.59192  0.00000 -0.18383
       5     H     0.42991  0.42991  0.00000  0.14018
       6     H     0.49925  0.49925  0.00000  0.00150
       7     H     0.50488  0.50488  0.00000 -0.00975
       8     H     0.50002  0.50002  0.00000 -0.00004
       9     H     0.49058  0.49058  0.00000  0.01884
      10     H     0.46480  0.46480  0.00000  0.07040
      11     H     0.46320  0.46320  0.00000  0.07359

   Total alpha = 17.00000, Total beta = 17.00000, Total charge =  0.00000

*** Psi4 exiting successfully. Buy a developer a beer!
