                               Psi4 1.2.1 release

  ==> Input File <==

--------------------------------------------------------------------------
set_num_threads(4)
set_memory('3000 MB')

set { scf_mem_safety_factor 0.7 }

set { reference rks }
set { basis 6-31G* }

molecule MOL {
    1 1
    noreorient
    nocom
    symmetry c1
    C   -0.000000  -0.000000  -0.177864
    C    0.036678   1.219374   0.524165
    C    0.031765   1.213120   1.915444
    C    0.000000   0.000000   2.610107
    C   -0.031765  -1.213120   1.915444
    C   -0.036678  -1.219375   0.524165
    C   -0.000000   0.000000  -1.644734
    H    0.018170   2.164705  -0.010854
    H    0.042402   2.152895   2.457886
    H    0.000000   0.000000   3.695756
    H   -0.042402  -2.152895   2.457886
    H   -0.018170  -2.164705  -0.010853
    N    0.904833   0.714007  -2.308460
    N   -0.904833  -0.714007  -2.308461
    H   -0.890289  -0.820899  -3.315997
    H   -1.686726  -1.122369  -1.813317
    H    1.686726   1.122369  -1.813316
    H    0.890289   0.820900  -3.315996
}

set optking { frozen_dihedral = (" 2 1 7 13 ") }

set optking { dynamic_level = 1
 geom_maxiter = 250
 print_trajectory_xyz_file = True }

energy, wfn = optimize('B3LYP-D3', return_wfn=True)

import os
os.chdir(os.environ['HTMD_PSI4_WORKDIR'])

oeprop(wfn, 'DIPOLE', 'QUADRUPOLE', 'MULLIKEN_CHARGES')

with open('psi4out.xyz', 'w') as f:
    f.write('18 ' )
    f.write('%.12f\n' % energy)
    f.write(MOL.save_string_xyz())
--------------------------------------------------------------------------

    Molecular point group: c1
  Charge       = 1
  Multiplicity = 1
  Basis Set: 6-31G*
    Blend: 6-31G*
  Basis Set: (6-31G* AUX)
    Blend: CC-PVDZ-JKFIT
  @DF-RKS Final Energy:  -381.46921516521786
    Total Energy =                       -381.4692151652179177
    Molecular point group: c1
  Basis Set: 6-31G*
    Blend: 6-31G*
  Basis Set: (6-31G* AUX)
    Blend: CC-PVDZ-JKFIT
  Basis Set: 6-31G*
    Blend: 6-31G*
  Basis Set: (6-31G* AUX)
    Blend: CC-PVDZ-JKFIT
  @DF-RKS Final Energy:  -381.46952524770489
    Total Energy =                       -381.4695252477049507
  Basis Set: 6-31G*
    Blend: 6-31G*
  Basis Set: (6-31G* AUX)
    Blend: CC-PVDZ-JKFIT
  Basis Set: 6-31G*
    Blend: 6-31G*
  @DF-RKS Final Energy:  -381.46965210249391
    Total Energy =                       -381.4696521024939102
  @DF-RKS Final Energy:  -381.46966045538431
    Total Energy =                       -381.4696604553843713
  Basis Set: (6-31G* AUX)
    Blend: CC-PVDZ-JKFIT
  Basis Set: 6-31G*
    Blend: 6-31G*
  Basis Set: (6-31G* AUX)
    Blend: CC-PVDZ-JKFIT
  @DF-RKS Final Energy:  -381.46966172751218
    Total Energy =                       -381.4696617275122321
  Basis Set: 6-31G*
    Blend: 6-31G*
  Basis Set: (6-31G* AUX)
    Blend: CC-PVDZ-JKFIT
  Charge       = 1
  Multiplicity = 1
  Basis Set: 6-31G*
    Blend: 6-31G*
  Basis Set: (6-31G* AUX)
    Blend: CC-PVDZ-JKFIT

    Orbital Energies [Eh]
    ---------------------

    Doubly Occupied:

       1A    -14.570097     2A    -14.570070     3A    -10.498165
       4A    -10.371587     5A    -10.354304     6A    -10.353899
       7A    -10.340464     8A    -10.338714     9A    -10.338611
      10A     -1.185314    11A     -1.094033    12A     -1.012836
      13A     -0.925362    14A     -0.900305    15A     -0.845001
      16A     -0.786184    17A     -0.771443    18A     -0.745500
      19A     -0.731115    20A     -0.689134    21A     -0.668666
      22A     -0.622593    23A     -0.619739    24A     -0.583274
      25A     -0.577357    26A     -0.571294    27A     -0.517956
      28A     -0.503048    29A     -0.496374    30A     -0.474458
      31A     -0.410000    32A     -0.403857

  @DF-RKS Final Energy:  -381.46966187365109

   => Energetics <=

    Nuclear Repulsion Energy =            416.8629575852434641
    One-Electron Energy =               -1328.9760437326012834
    Two-Electron Energy =                 575.0609281933698185
    DFT Exchange-Correlation Energy =     -44.4055215996632171
    Empirical Dispersion Energy =          -0.0119823200000000
    VV10 Nonlocal Energy =                  0.0000000000000000
    Total Energy =                       -381.4696618736511482
    Molecular point group: c1
  Basis Set: 6-31G*
    Blend: 6-31G*
  Basis Set: (6-31G* AUX)
    Blend: CC-PVDZ-JKFIT

  -Total Gradient:
     Atom            X                  Y                   Z
    ------   -----------------  -----------------  -----------------
       1        0.005281955028    -0.001197853831    -0.000076626021
       2       -0.002975275516     0.000068861940     0.000042282833
       3       -0.000014327500     0.000000888635     0.000003342619
       4       -0.000003712154     0.000001032293    -0.000007166619
       5       -0.000000880940    -0.000000413776    -0.000001367229
       6        0.000009721385     0.000000714289     0.000005739140
       7       -0.004303735235     0.003584580642     0.000050113156
       8       -0.000002818320    -0.000001135661    -0.000002837948
       9        0.000003417959    -0.000001178523    -0.000001046136
      10        0.000003726533    -0.000002012763     0.000000515302
      11       -0.000001534070     0.000001331903     0.000003037915
      12        0.000000040708    -0.000001091515    -0.000005376754
      13        0.001986445061    -0.002453750505    -0.000048827839
      14        0.000018384689    -0.000008791379     0.000005277204
      15       -0.000004213616     0.000008238374     0.000001095941
      16       -0.000006668886    -0.000001076604     0.000006332040
      17        0.000002869070    -0.000000683222    -0.000000700541
      18        0.000003714059    -0.000004270185     0.000004599717

  **** Optimization is complete! (in 6 steps) ****
    Final optimized geometry and variables:
    Molecular point group: c1

    Geometry (in Angstrom), charge = 1, multiplicity = 1:

    C            0.032318351467     0.000599305592    -0.177902610020
    C            0.069423600893     1.220088663970     0.520846811032
    C            0.043433744134     1.212076369933     1.912848424227
    C           -0.015923845373    -0.001419127558     2.604466337954
    C           -0.060425945786    -1.213539635187     1.908428880659
    C           -0.051523669985    -1.219150582259     0.516522744900
    C            0.005784316955     0.008454233684    -1.647478432546
    H            0.087325097338     2.162461189892    -0.019581683641
    H            0.059868564233     2.150792319700     2.457071822754
    H           -0.030825915966    -0.002804786021     3.690018536012
    H           -0.099016652395    -2.153054658827     2.450180915603
    H           -0.064763978129    -2.160222188156    -0.026206125436
    N            0.893937776717     0.736975057090    -2.314219638432
    N           -0.878091448040    -0.744667108944    -2.292036903822
    H           -0.882618810480    -0.854470887539    -3.299834040710
    H           -1.617382070398    -1.200566574575    -1.772680451129
    H            1.635164771881     1.204849077452    -1.808402572793
    H            0.873316112933     0.853599331752    -3.321041014612

  Dipole Moment: [D]
     X:    -0.0486      Y:     0.0450      Z:    -5.9140     Total:     5.9144

  Mulliken Charges: (a.u.)
   Center  Symbol    Alpha    Beta     Spin     Total
       1     C     2.96855  2.96855  0.00000  0.06290
       2     C     3.07824  3.07824  0.00000 -0.15647
       3     C     3.06205  3.06205  0.00000 -0.12409
       4     C     3.05202  3.05202  0.00000 -0.10403
       5     C     3.06302  3.06302  0.00000 -0.12605
       6     C     3.07942  3.07942  0.00000 -0.15883
       7     C     2.73029  2.73029  0.00000  0.53942
       8     H     0.41366  0.41366  0.00000  0.17268
       9     H     0.40588  0.40588  0.00000  0.18824
      10     H     0.40462  0.40462  0.00000  0.19077
      11     H     0.40587  0.40587  0.00000  0.18826
      12     H     0.41345  0.41345  0.00000  0.17311
      13     N     3.85677  3.85677  0.00000 -0.71354
      14     N     3.85817  3.85817  0.00000 -0.71635
      15     H     0.30550  0.30550  0.00000  0.38901
      16     H     0.29862  0.29862  0.00000  0.40276
      17     H     0.29825  0.29825  0.00000  0.40350
      18     H     0.30563  0.30563  0.00000  0.38873

   Total alpha = 32.00000, Total beta = 32.00000, Total charge =  1.00000

*** Psi4 exiting successfully. Buy a developer a beer!
