                               Psi4 1.2.1 release

  ==> Input File <==

--------------------------------------------------------------------------
set_num_threads(1)
set_memory('5348 MB')

set { scf_mem_safety_factor 0.7 }

set { reference rks }
set { basis cc-pVDZ }

molecule MOL {
    0 1
    noreorient
    nocom
    symmetry c1
    O    1.014300  -0.002300   0.060500
    O    2.462400  -0.107500  -0.002400
    H    0.821200  -0.823600  -0.430600
    H    2.601688   0.635706  -0.619716
}

set optking { frozen_dihedral = (" 3 1 2 4 ") }

set optking { dynamic_level = 1
 geom_maxiter = 250
 print_trajectory_xyz_file = True }

energy, wfn = optimize('B3LYP-D3', return_wfn=True)

import os
os.chdir(os.environ['HTMD_PSI4_WORKDIR'])

oeprop(wfn, 'DIPOLE', 'QUADRUPOLE', 'MULLIKEN_CHARGES')

with open('psi4out.xyz', 'w') as f:
    f.write('4 ' )
    f.write('%.12f\n' % energy)
    f.write(MOL.save_string_xyz())
--------------------------------------------------------------------------

    Molecular point group: c1
  Charge       = 0
  Multiplicity = 1
  Basis Set: CC-PVDZ
    Blend: CC-PVDZ
  Basis Set: (CC-PVDZ AUX)
    Blend: CC-PVDZ-JKFIT
  @DF-RKS Final Energy:  -151.55007858857869
    Total Energy =                       -151.5500785885786854
    Molecular point group: c1
  Basis Set: CC-PVDZ
    Blend: CC-PVDZ
  Basis Set: (CC-PVDZ AUX)
    Blend: CC-PVDZ-JKFIT
  Basis Set: CC-PVDZ
    Blend: CC-PVDZ
  Basis Set: (CC-PVDZ AUX)
    Blend: CC-PVDZ-JKFIT
  @DF-RKS Final Energy:  -151.55066020111062
    Total Energy =                       -151.5506602011106452
  Basis Set: CC-PVDZ
    Blend: CC-PVDZ
  Basis Set: (CC-PVDZ AUX)
    Blend: CC-PVDZ-JKFIT
  Basis Set: CC-PVDZ
    Blend: CC-PVDZ
  @DF-RKS Final Energy:  -151.55106884566084
    Total Energy =                       -151.5510688456608648
  Basis Set: (CC-PVDZ AUX)
    Blend: CC-PVDZ-JKFIT
  Basis Set: CC-PVDZ
    Blend: CC-PVDZ
  Basis Set: (CC-PVDZ AUX)
    Blend: CC-PVDZ-JKFIT
  @DF-RKS Final Energy:  -151.55107638473928
    Total Energy =                       -151.5510763847392752
  Basis Set: CC-PVDZ
    Blend: CC-PVDZ
  Basis Set: (CC-PVDZ AUX)
    Blend: CC-PVDZ-JKFIT
  Charge       = 0
  Multiplicity = 1
  Basis Set: CC-PVDZ
    Blend: CC-PVDZ
  Basis Set: (CC-PVDZ AUX)
    Blend: CC-PVDZ-JKFIT

    Orbital Energies [Eh]
    ---------------------

    Doubly Occupied:

       1A    -19.187654     2A    -19.187614     3A     -1.109682
       4A     -0.889094     5A     -0.524202     6A     -0.479136
       7A     -0.410451     8A     -0.305970     9A     -0.272637

  @DF-RKS Final Energy:  -151.55107711241902

   => Energetics <=

    Nuclear Repulsion Energy =             36.7464409752022974
    One-Electron Energy =                -281.4777868814023805
    Two-Electron Energy =                 107.6426769265652723
    DFT Exchange-Correlation Energy =     -14.4620536227841914
    Empirical Dispersion Energy =          -0.0003545100000000
    VV10 Nonlocal Energy =                  0.0000000000000000
    Total Energy =                       -151.5510771124189944
    Molecular point group: c1
  Basis Set: CC-PVDZ
    Blend: CC-PVDZ
  Basis Set: (CC-PVDZ AUX)
    Blend: CC-PVDZ-JKFIT

  -Total Gradient:
     Atom            X                  Y                   Z
    ------   -----------------  -----------------  -----------------
       1        0.000024445090    -0.000375145399     0.000500731254
       2        0.000021349154     0.000441411907     0.000443560610
       3       -0.000001717112     0.000301145113    -0.000491263647
       4       -0.000043559892    -0.000366661371    -0.000442368224

  **** Optimization is complete! (in 5 steps) ****
    Final optimized geometry and variables:
    Molecular point group: c1

    Geometry (in Angstrom), charge = 0, multiplicity = 1:

    O            1.014170901866    -0.024039507283     0.058698063542
    O            2.462200148727    -0.086259062791    -0.007199236344
    H            0.782761407439    -0.837380428093    -0.424426352327
    H            2.640455541969     0.649984998167    -0.619288474871

  Dipole Moment: [D]
     X:    -0.0919      Y:    -0.1333      Z:    -1.8937     Total:     1.9006

  Mulliken Charges: (a.u.)
   Center  Symbol    Alpha    Beta     Spin     Total
       1     O     4.08927  4.08927  0.00000 -0.17855
       2     O     4.08927  4.08927  0.00000 -0.17855
       3     H     0.41073  0.41073  0.00000  0.17855
       4     H     0.41073  0.41073  0.00000  0.17855

   Total alpha =  9.00000, Total beta =  9.00000, Total charge = -0.00000

*** Psi4 exiting successfully. Buy a developer a beer!
