                               Psi4 1.2.1 release

  ==> Input File <==

--------------------------------------------------------------------------
set_num_threads(1)
set_memory('5348 MB')

set { scf_mem_safety_factor 0.7 }

set { reference rks }
set { basis cc-pVDZ }

molecule MOL {
    0 1
    noreorient
    nocom
    symmetry c1
    O    1.050400   0.042900  -0.048100
    C    2.474100   0.047400  -0.029000
    C    3.002600  -1.068900  -0.932000
    N    4.299175  -0.735177  -1.519385
    H    0.760400   0.728400   0.578000
    H    2.809900  -0.097900   1.003200
    H    2.817400   1.026800  -0.378600
    H    2.278327  -1.276581  -1.728264
    H    3.092097  -1.993297  -0.350162
    H    4.188536   0.053920  -2.155441
    H    4.608938  -1.517094  -2.096364
}

set optking { frozen_dihedral = (" 1 2 3 4 ") }

energy, wfn = energy('B3LYP-D3', return_wfn=True)

import os
os.chdir(os.environ['HTMD_PSI4_WORKDIR'])

oeprop(wfn, 'DIPOLE', 'QUADRUPOLE', 'MULLIKEN_CHARGES')

with open('psi4out.xyz', 'w') as f:
    f.write('11 ' )
    f.write('%.12f\n' % energy)
    f.write(MOL.save_string_xyz())
--------------------------------------------------------------------------

    Molecular point group: c1

    Geometry (in Angstrom), charge = 0, multiplicity = 1:

       Center              X                  Y                   Z               Mass
    ------------   -----------------  -----------------  -----------------  -----------------
         O            1.050400000000     0.042900000000    -0.048100000000    15.994914619560
         C            2.474100000000     0.047400000000    -0.029000000000    12.000000000000
         C            3.002600000000    -1.068900000000    -0.932000000000    12.000000000000
         N            4.299175000000    -0.735177000000    -1.519385000000    14.003074004780
         H            0.760400000000     0.728400000000     0.578000000000     1.007825032070
         H            2.809900000000    -0.097900000000     1.003200000000     1.007825032070
         H            2.817400000000     1.026800000000    -0.378600000000     1.007825032070
         H            2.278327000000    -1.276581000000    -1.728264000000     1.007825032070
         H            3.092097000000    -1.993297000000    -0.350162000000     1.007825032070
         H            4.188536000000     0.053920000000    -2.155441000000     1.007825032070
         H            4.608938000000    -1.517094000000    -2.096364000000     1.007825032070

  Charge       = 0
  Multiplicity = 1
  Basis Set: CC-PVDZ
    Blend: CC-PVDZ
  Basis Set: (CC-PVDZ AUX)
    Blend: CC-PVDZ-JKFIT

    Orbital Energies [Eh]
    ---------------------

    Doubly Occupied:

       1A    -19.126765     2A    -14.303486     3A    -10.223685
       4A    -10.201128     5A     -1.009361     6A     -0.875699
       7A     -0.712242     8A     -0.596736     9A     -0.507331
      10A     -0.488251    11A     -0.443783    12A     -0.421096
      13A     -0.388421    14A     -0.362914    15A     -0.323929
      16A     -0.260163    17A     -0.229476

  @DF-RKS Final Energy:  -210.38887004173029

   => Energetics <=

    Nuclear Repulsion Energy =            130.6181648736743171
    One-Electron Energy =                -544.1817268453941097
    Two-Electron Energy =                 226.6680622940232013
    DFT Exchange-Correlation Energy =     -23.4885694240337202
    Empirical Dispersion Energy =          -0.0048009400000000
    VV10 Nonlocal Energy =                  0.0000000000000000
    Total Energy =                       -210.3888700417302857

  Dipole Moment: [D]
     X:     0.0792      Y:     0.6501      Z:    -0.1536     Total:     0.6727

  Mulliken Charges: (a.u.)
   Center  Symbol    Alpha    Beta     Spin     Total
       1     O     4.14036  4.14036  0.00000 -0.28071
       2     C     2.92787  2.92787  0.00000  0.14426
       3     C     2.98363  2.98363  0.00000  0.03273
       4     N     3.59558  3.59558  0.00000 -0.19115
       5     H     0.43052  0.43052  0.00000  0.13896
       6     H     0.49830  0.49830  0.00000  0.00339
       7     H     0.50404  0.50404  0.00000 -0.00807
       8     H     0.49890  0.49890  0.00000  0.00220
       9     H     0.49142  0.49142  0.00000  0.01717
      10     H     0.46508  0.46508  0.00000  0.06984
      11     H     0.46431  0.46431  0.00000  0.07138

   Total alpha = 17.00000, Total beta = 17.00000, Total charge = -0.00000

*** Psi4 exiting successfully. Buy a developer a beer!
