                               Psi4 1.2.1 release

  ==> Input File <==

--------------------------------------------------------------------------
set_num_threads(1)
set_memory('5348 MB')

set { scf_mem_safety_factor 0.7 }

set { reference rks }
set { basis cc-pVDZ }

molecule MOL {
    0 1
    noreorient
    nocom
    symmetry c1
    O    1.141000   0.017000   0.083000
    C    2.558000   0.086000  -0.005000
    C    3.192000  -0.789000   1.067000
    O    3.604386  -2.028786   0.504650
    H    0.789000   0.590000  -0.620000
    H    2.874000   1.128000   0.115000
    H    2.871000  -0.243000  -1.001000
    H    2.478938  -0.980936   1.874862
    H    4.062840  -0.287392   1.503927
    H    3.999557  -2.544930   1.228750
}

set optking { frozen_dihedral = (" 1 2 3 4 ") }

energy, wfn = energy('B3LYP-D3', return_wfn=True)

import os
os.chdir(os.environ['HTMD_PSI4_WORKDIR'])

oeprop(wfn, 'DIPOLE', 'QUADRUPOLE', 'MULLIKEN_CHARGES')

with open('psi4out.xyz', 'w') as f:
    f.write('10 ' )
    f.write('%.12f\n' % energy)
    f.write(MOL.save_string_xyz())
--------------------------------------------------------------------------

    Molecular point group: c1

    Geometry (in Angstrom), charge = 0, multiplicity = 1:

       Center              X                  Y                   Z               Mass
    ------------   -----------------  -----------------  -----------------  -----------------
         O            1.141000000000     0.017000000000     0.083000000000    15.994914619560
         C            2.558000000000     0.086000000000    -0.005000000000    12.000000000000
         C            3.192000000000    -0.789000000000     1.067000000000    12.000000000000
         O            3.604386000000    -2.028786000000     0.504650000000    15.994914619560
         H            0.789000000000     0.590000000000    -0.620000000000     1.007825032070
         H            2.874000000000     1.128000000000     0.115000000000     1.007825032070
         H            2.871000000000    -0.243000000000    -1.001000000000     1.007825032070
         H            2.478938000000    -0.980936000000     1.874862000000     1.007825032070
         H            4.062840000000    -0.287392000000     1.503927000000     1.007825032070
         H            3.999557000000    -2.544930000000     1.228750000000     1.007825032070

  Charge       = 0
  Multiplicity = 1
  Basis Set: CC-PVDZ
    Blend: CC-PVDZ
  Basis Set: (CC-PVDZ AUX)
    Blend: CC-PVDZ-JKFIT

    Orbital Energies [Eh]
    ---------------------

    Doubly Occupied:

       1A    -19.126953     2A    -19.126907     3A    -10.225952
       4A    -10.225763     5A     -1.016778     6A     -1.003130
       7A     -0.733102     8A     -0.603128     9A     -0.516087
      10A     -0.510591    11A     -0.428217    12A     -0.417125
      13A     -0.409574    14A     -0.344927    15A     -0.319180
      16A     -0.267132    17A     -0.254371

  @DF-RKS Final Energy:  -230.25452039205265

   => Energetics <=

    Nuclear Repulsion Energy =            130.5693775194027921
    One-Electron Energy =                -572.9566262149207887
    Two-Electron Energy =                 236.6772257285653893
    DFT Exchange-Correlation Energy =     -24.5402146651000663
    Empirical Dispersion Energy =          -0.0042827600000000
    VV10 Nonlocal Energy =                  0.0000000000000000
    Total Energy =                       -230.2545203920526831

  Dipole Moment: [D]
     X:     0.8649      Y:     1.1312      Z:     0.4096     Total:     1.4817

  Mulliken Charges: (a.u.)
   Center  Symbol    Alpha    Beta     Spin     Total
       1     O     4.13887  4.13887  0.00000 -0.27774
       2     C     2.93169  2.93169  0.00000  0.13662
       3     C     2.93180  2.93180  0.00000  0.13641
       4     O     4.13909  4.13909  0.00000 -0.27818
       5     H     0.43097  0.43097  0.00000  0.13806
       6     H     0.50390  0.50390  0.00000 -0.00780
       7     H     0.49452  0.49452  0.00000  0.01095
       8     H     0.49445  0.49445  0.00000  0.01111
       9     H     0.50380  0.50380  0.00000 -0.00760
      10     H     0.43092  0.43092  0.00000  0.13817

   Total alpha = 17.00000, Total beta = 17.00000, Total charge = -0.00000

*** Psi4 exiting successfully. Buy a developer a beer!
