                               Psi4 1.2.1 release

  ==> Input File <==

--------------------------------------------------------------------------
set_num_threads(4)
set_memory('3000 MB')

set { scf_mem_safety_factor 0.7 }

set { reference rks }
set { basis 6-31G* }

molecule MOL {
    1 1
    noreorient
    nocom
    symmetry c1
    C    0.000000   0.000000  -0.170000
    C    0.007000   1.210000   0.523000
    C    0.000000   1.205000   1.904000
    C    0.000000   0.000000   2.592000
    C    0.000000  -1.205000   1.904000
    C   -0.007000  -1.210000   0.523000
    C    0.000000   0.000000  -1.643000
    H   -0.019000   2.146000  -0.006000
    H   -0.011000   2.134000   2.442000
    H    0.000000   0.000000   3.666000
    H    0.011000  -2.134000   2.442000
    H    0.019000  -2.146000  -0.006000
    N   -0.741000  -0.864000  -2.296000
    N    0.741000   0.864000  -2.296000
    H    0.721000   0.947000  -3.291000
    H    1.404000   1.427000  -1.808000
    H   -1.404000  -1.427000  -1.808000
    H   -0.721000  -0.947000  -3.291000
}

set optking { dynamic_level = 1
 geom_maxiter = 250
 print_trajectory_xyz_file = True }

energy, wfn = optimize('B3LYP-D3', return_wfn=True)

import os
os.chdir(os.environ['HTMD_PSI4_WORKDIR'])

oeprop(wfn, 'DIPOLE', 'QUADRUPOLE', 'MULLIKEN_CHARGES')

with open('psi4out.xyz', 'w') as f:
    f.write('18 ' )
    f.write('%.12f\n' % energy)
    f.write(MOL.save_string_xyz())
--------------------------------------------------------------------------

    Molecular point group: c1
  Charge       = 1
  Multiplicity = 1
  Basis Set: 6-31G*
    Blend: 6-31G*
  Basis Set: (6-31G* AUX)
    Blend: CC-PVDZ-JKFIT
  @DF-RKS Final Energy:  -381.46781943460957
    Total Energy =                       -381.4678194346096234
    Molecular point group: c1
  Basis Set: 6-31G*
    Blend: 6-31G*
  Basis Set: (6-31G* AUX)
    Blend: CC-PVDZ-JKFIT
  Basis Set: 6-31G*
    Blend: 6-31G*
  Basis Set: (6-31G* AUX)
    Blend: CC-PVDZ-JKFIT
  @DF-RKS Final Energy:  -381.47041476753759
    Total Energy =                       -381.4704147675375907
  Basis Set: 6-31G*
    Blend: 6-31G*
  Basis Set: (6-31G* AUX)
    Blend: CC-PVDZ-JKFIT
  Basis Set: 6-31G*
    Blend: 6-31G*
  @DF-RKS Final Energy:  -381.47049075310395
    Total Energy =                       -381.4704907531040021
  @DF-RKS Final Energy:  -381.47050699856715
    Total Energy =                       -381.4705069985670889
  Basis Set: (6-31G* AUX)
    Blend: CC-PVDZ-JKFIT
  Basis Set: 6-31G*
    Blend: 6-31G*
  Basis Set: (6-31G* AUX)
    Blend: CC-PVDZ-JKFIT
  @DF-RKS Final Energy:  -381.47050910339999
    Total Energy =                       -381.4705091033999338
  Basis Set: 6-31G*
    Blend: 6-31G*
  Basis Set: (6-31G* AUX)
    Blend: CC-PVDZ-JKFIT
  Charge       = 1
  Multiplicity = 1
  Basis Set: 6-31G*
    Blend: 6-31G*
  Basis Set: (6-31G* AUX)
    Blend: CC-PVDZ-JKFIT

    Orbital Energies [Eh]
    ---------------------

    Doubly Occupied:

       1A    -14.568043     2A    -14.568036     3A    -10.497180
       4A    -10.373175     5A    -10.356122     6A    -10.356113
       7A    -10.342965     8A    -10.340403     9A    -10.340346
      10A     -1.183828    11A     -1.091958    12A     -1.014244
      13A     -0.926589    14A     -0.902174    15A     -0.845401
      16A     -0.785712    17A     -0.773381    18A     -0.741668
      19A     -0.732896    20A     -0.688868    21A     -0.669057
      22A     -0.625497    23A     -0.617233    24A     -0.586921
      25A     -0.579015    26A     -0.572821    27A     -0.518317
      28A     -0.505465    29A     -0.498054    30A     -0.472890
      31A     -0.411668    32A     -0.405682

  @DF-RKS Final Energy:  -381.47050946059926

   => Energetics <=

    Nuclear Repulsion Energy =            416.9186375570877203
    One-Electron Energy =               -1329.0469403444458294
    Two-Electron Energy =                 575.0756878391779310
    DFT Exchange-Correlation Energy =     -44.4059623924192337
    Empirical Dispersion Energy =          -0.0119321200000000
    VV10 Nonlocal Energy =                  0.0000000000000000
    Total Energy =                       -381.4705094605993168
    Molecular point group: c1
  Basis Set: 6-31G*
    Blend: 6-31G*
  Basis Set: (6-31G* AUX)
    Blend: CC-PVDZ-JKFIT

  -Total Gradient:
     Atom            X                  Y                   Z
    ------   -----------------  -----------------  -----------------
       1       -0.000000012275     0.000000029768    -0.000056567501
       2        0.000007764403     0.000001772424     0.000014143620
       3       -0.000008327422     0.000008816187     0.000002625948
       4       -0.000000000145    -0.000000004366     0.000010334011
       5        0.000008330088    -0.000008808146     0.000002631665
       6       -0.000007763875    -0.000001783498     0.000014161097
       7        0.000000003831    -0.000000022865     0.000044192698
       8       -0.000004242428    -0.000001181431     0.000001797640
       9        0.000003623884    -0.000003143898    -0.000004343173
      10       -0.000000000093     0.000000001885    -0.000003896377
      11       -0.000003624001     0.000003143813    -0.000004337219
      12        0.000004246277     0.000001172809     0.000001796165
      13       -0.000040863344    -0.000003528709    -0.000038017020
      14        0.000040862265     0.000003532736    -0.000038023341
      15       -0.000010339962    -0.000002503473     0.000017491709
      16       -0.000017070565    -0.000000209378    -0.000001222962
      17        0.000017071252     0.000000214258    -0.000001226281
      18        0.000010342139     0.000002501911     0.000017496822

  **** Optimization is complete! (in 6 steps) ****
    Final optimized geometry and variables:
    Molecular point group: c1

    Geometry (in Angstrom), charge = 1, multiplicity = 1:

    C           -0.000000029043    -0.000000238620    -0.177864305076
    C            0.036677730867     1.219374289723     0.524164817078
    C            0.031764575878     1.213119459879     1.915444084977
    C            0.000000022226     0.000000021570     2.610106590391
    C           -0.031764542969    -1.213119462937     1.915444218298
    C           -0.036677745873    -1.219374567600     0.524165001259
    C           -0.000000020334     0.000000009972    -1.644733516697
    H            0.018170385855     2.164704647706    -0.010853514199
    H            0.042402028106     2.152894977018     2.457885643149
    H            0.000000037624     0.000000104926     3.695756044284
    H           -0.042401967650    -2.152894829823     2.457885913613
    H           -0.018170386247    -2.164704995371    -0.010853120450
    N           -0.712589801510    -0.905949906098    -2.308460637299
    N            0.712589752852     0.905950086796    -2.308460438601
    H            0.673431971423     1.006469608967    -3.315996764009
    H            1.377189815406     1.485969629591    -1.813316368483
    H           -1.377189830328    -1.485969560602    -1.813316677934
    H           -0.673431996284    -1.006469275097    -3.315996970301

  Dipole Moment: [D]
     X:     0.0000      Y:     0.0000      Z:    -5.7334     Total:     5.7334

  Mulliken Charges: (a.u.)
   Center  Symbol    Alpha    Beta     Spin     Total
       1     C     2.95717  2.95717  0.00000  0.08566
       2     C     3.08208  3.08208  0.00000 -0.16415
       3     C     3.06249  3.06249  0.00000 -0.12497
       4     C     3.05148  3.05148  0.00000 -0.10295
       5     C     3.06249  3.06249  0.00000 -0.12497
       6     C     3.08208  3.08208  0.00000 -0.16415
       7     C     2.72193  2.72193  0.00000  0.55615
       8     H     0.41420  0.41420  0.00000  0.17160
       9     H     0.40544  0.40544  0.00000  0.18911
      10     H     0.40389  0.40389  0.00000  0.19223
      11     H     0.40544  0.40544  0.00000  0.18911
      12     H     0.41420  0.41420  0.00000  0.17160
      13     N     3.86323  3.86323  0.00000 -0.72645
      14     N     3.86323  3.86323  0.00000 -0.72645
      15     H     0.30570  0.30570  0.00000  0.38861
      16     H     0.29964  0.29964  0.00000  0.40071
      17     H     0.29964  0.29964  0.00000  0.40071
      18     H     0.30570  0.30570  0.00000  0.38861

   Total alpha = 32.00000, Total beta = 32.00000, Total charge =  1.00000

*** Psi4 exiting successfully. Buy a developer a beer!
