                               Psi4 1.2.1 release

  ==> Input File <==

--------------------------------------------------------------------------
set_num_threads(1)
set_memory('5348 MB')

set { scf_mem_safety_factor 0.7 }

set { reference rks }
set { basis cc-pVDZ }

molecule MOL {
    0 1
    noreorient
    nocom
    symmetry c1
    O    1.050400   0.042900  -0.048100
    C    2.474100   0.047400  -0.029000
    C    3.002600  -1.068900  -0.932000
    N    4.462700  -1.072400  -1.006800
    H    0.759641   0.651426   0.652732
    H    2.809900  -0.097900   1.003200
    H    2.817400   1.026800  -0.378600
    H    2.581000  -0.963300  -1.938400
    H    2.653800  -2.036400  -0.553400
    H    4.779000  -0.221000  -1.470000
    H    4.758600  -1.842500  -1.606500
}

set optking { frozen_dihedral = (" 3 2 1 5 ") }

energy, wfn = energy('B3LYP-D3', return_wfn=True)

import os
os.chdir(os.environ['HTMD_PSI4_WORKDIR'])

oeprop(wfn, 'DIPOLE', 'QUADRUPOLE', 'MULLIKEN_CHARGES')

with open('psi4out.xyz', 'w') as f:
    f.write('11 ' )
    f.write('%.12f\n' % energy)
    f.write(MOL.save_string_xyz())
--------------------------------------------------------------------------

    Molecular point group: c1

    Geometry (in Angstrom), charge = 0, multiplicity = 1:

       Center              X                  Y                   Z               Mass
    ------------   -----------------  -----------------  -----------------  -----------------
         O            1.050400000000     0.042900000000    -0.048100000000    15.994914619560
         C            2.474100000000     0.047400000000    -0.029000000000    12.000000000000
         C            3.002600000000    -1.068900000000    -0.932000000000    12.000000000000
         N            4.462700000000    -1.072400000000    -1.006800000000    14.003074004780
         H            0.759641000000     0.651426000000     0.652732000000     1.007825032070
         H            2.809900000000    -0.097900000000     1.003200000000     1.007825032070
         H            2.817400000000     1.026800000000    -0.378600000000     1.007825032070
         H            2.581000000000    -0.963300000000    -1.938400000000     1.007825032070
         H            2.653800000000    -2.036400000000    -0.553400000000     1.007825032070
         H            4.779000000000    -0.221000000000    -1.470000000000     1.007825032070
         H            4.758600000000    -1.842500000000    -1.606500000000     1.007825032070

  Charge       = 0
  Multiplicity = 1
  Basis Set: CC-PVDZ
    Blend: CC-PVDZ
  Basis Set: (CC-PVDZ AUX)
    Blend: CC-PVDZ-JKFIT

    Orbital Energies [Eh]
    ---------------------

    Doubly Occupied:

       1A    -19.127033     2A    -14.304777     3A    -10.223823
       4A    -10.201660     5A     -1.009417     6A     -0.876650
       7A     -0.712053     8A     -0.597069     9A     -0.506161
      10A     -0.485941    11A     -0.452996    12A     -0.417603
      13A     -0.388092    14A     -0.362641    15A     -0.323531
      16A     -0.260833    17A     -0.230918

  @DF-RKS Final Energy:  -210.39130861281990

   => Energetics <=

    Nuclear Repulsion Energy =            130.4138644123900406
    One-Electron Energy =                -543.7658513407060354
    Two-Electron Energy =                 226.4520158242035563
    DFT Exchange-Correlation Energy =     -23.4864210487074487
    Empirical Dispersion Energy =          -0.0049164600000000
    VV10 Nonlocal Energy =                  0.0000000000000000
    Total Energy =                       -210.3913086128199268

  Dipole Moment: [D]
     X:     0.4583      Y:     0.8558      Z:    -0.2357     Total:     0.9990

  Mulliken Charges: (a.u.)
   Center  Symbol    Alpha    Beta     Spin     Total
       1     O     4.13942  4.13942  0.00000 -0.27884
       2     C     2.92966  2.92966  0.00000  0.14068
       3     C     2.98470  2.98470  0.00000  0.03059
       4     N     3.59362  3.59362  0.00000 -0.18724
       5     H     0.42970  0.42970  0.00000  0.14060
       6     H     0.49822  0.49822  0.00000  0.00356
       7     H     0.50439  0.50439  0.00000 -0.00878
       8     H     0.50066  0.50066  0.00000 -0.00132
       9     H     0.49043  0.49043  0.00000  0.01914
      10     H     0.46581  0.46581  0.00000  0.06839
      11     H     0.46339  0.46339  0.00000  0.07322

   Total alpha = 17.00000, Total beta = 17.00000, Total charge = -0.00000

*** Psi4 exiting successfully. Buy a developer a beer!
