                               Psi4 1.2.1 release

  ==> Input File <==

--------------------------------------------------------------------------
set_num_threads(4)
set_memory('3000 MB')

set { scf_mem_safety_factor 0.7 }

set { reference rks }
set { basis 6-31G* }

molecule MOL {
    1 1
    noreorient
    nocom
    symmetry c1
    C   -0.000000  -0.000000  -0.177864
    C    0.036678   1.219374   0.524165
    C    0.031765   1.213120   1.915444
    C    0.000000   0.000000   2.610107
    C   -0.031765  -1.213120   1.915444
    C   -0.036678  -1.219375   0.524165
    C   -0.000000   0.000000  -1.644734
    H    0.018170   2.164705  -0.010854
    H    0.042402   2.152895   2.457886
    H    0.000000   0.000000   3.695756
    H   -0.042402  -2.152895   2.457886
    H   -0.018170  -2.164705  -0.010853
    N   -0.361476   1.094470  -2.308460
    N    0.361476  -1.094470  -2.308461
    H    0.466896  -1.117362  -3.315997
    H    0.477788  -1.968877  -1.813317
    H   -0.477788   1.968877  -1.813316
    H   -0.466897   1.117363  -3.315996
}

set optking { frozen_dihedral = (" 2 1 7 13 ") }

set optking { dynamic_level = 1
 geom_maxiter = 250
 print_trajectory_xyz_file = True }

energy, wfn = optimize('B3LYP-D3', return_wfn=True)

import os
os.chdir(os.environ['HTMD_PSI4_WORKDIR'])

oeprop(wfn, 'DIPOLE', 'QUADRUPOLE', 'MULLIKEN_CHARGES')

with open('psi4out.xyz', 'w') as f:
    f.write('18 ' )
    f.write('%.12f\n' % energy)
    f.write(MOL.save_string_xyz())
--------------------------------------------------------------------------

    Molecular point group: c1
  Charge       = 1
  Multiplicity = 1
  Basis Set: 6-31G*
    Blend: 6-31G*
  Basis Set: (6-31G* AUX)
    Blend: CC-PVDZ-JKFIT
  @DF-RKS Final Energy:  -381.46358803363682
    Total Energy =                       -381.4635880336368245
    Molecular point group: c1
  Basis Set: 6-31G*
    Blend: 6-31G*
  Basis Set: (6-31G* AUX)
    Blend: CC-PVDZ-JKFIT
  Basis Set: 6-31G*
    Blend: 6-31G*
  Basis Set: (6-31G* AUX)
    Blend: CC-PVDZ-JKFIT
  @DF-RKS Final Energy:  -381.46667114810896
    Total Energy =                       -381.4666711481089578
  Basis Set: 6-31G*
    Blend: 6-31G*
  Basis Set: (6-31G* AUX)
    Blend: CC-PVDZ-JKFIT
  Basis Set: 6-31G*
    Blend: 6-31G*
  @DF-RKS Final Energy:  -381.46838652665224
    Total Energy =                       -381.4683865266522957
  @DF-RKS Final Energy:  -381.46667114810776
    Total Energy =                       -381.4666711481077073
  @DF-RKS Final Energy:  -381.46808515892434
    Total Energy =                       -381.4680851589243389
  @DF-RKS Final Energy:  -381.46884659019173
    Total Energy =                       -381.4688465901917311
  @DF-RKS Final Energy:  -381.46921029307316
    Total Energy =                       -381.4692102930731608
  @DF-RKS Final Energy:  -381.46926910099216
    Total Energy =                       -381.4692691009921077
  @DF-RKS Final Energy:  -381.46927873354844
    Total Energy =                       -381.4692787335483786
  @DF-RKS Final Energy:  -381.46928109982554
    Total Energy =                       -381.4692810998255936
  @DF-RKS Final Energy:  -381.46890467723659
    Total Energy =                       -381.4689046772366510
  Basis Set: (6-31G* AUX)
    Blend: CC-PVDZ-JKFIT
  Basis Set: 6-31G*
    Blend: 6-31G*
  Basis Set: (6-31G* AUX)
    Blend: CC-PVDZ-JKFIT
  @DF-RKS Final Energy:  -381.46918703725845
    Total Energy =                       -381.4691870372584503
  Basis Set: 6-31G*
    Blend: 6-31G*
  Basis Set: (6-31G* AUX)
    Blend: CC-PVDZ-JKFIT
  Charge       = 1
  Multiplicity = 1
  Basis Set: 6-31G*
    Blend: 6-31G*
  Basis Set: (6-31G* AUX)
    Blend: CC-PVDZ-JKFIT

    Orbital Energies [Eh]
    ---------------------

    Doubly Occupied:

       1A    -14.566329     2A    -14.566178     3A    -10.497088
       4A    -10.375225     5A    -10.358655     6A    -10.358287
       7A    -10.345308     8A    -10.341970     9A    -10.341915
      10A     -1.182992    11A     -1.090106    12A     -1.015777
      13A     -0.927867    14A     -0.904133    15A     -0.846435
      16A     -0.785678    17A     -0.775196    18A     -0.737892
      19A     -0.735540    20A     -0.688699    21A     -0.669286
      22A     -0.628749    23A     -0.613736    24A     -0.592648
      25A     -0.580780    26A     -0.574796    27A     -0.518416
      28A     -0.507879    29A     -0.499707    30A     -0.471866
      31A     -0.413028    32A     -0.407235

  @DF-RKS Final Energy:  -381.46928109982429

   => Energetics <=

    Nuclear Repulsion Energy =            416.8475529149393992
    One-Electron Energy =               -1328.8469050694129692
    Two-Electron Energy =                 574.9483720364029296
    DFT Exchange-Correlation Energy =     -44.4065738517535493
    Empirical Dispersion Energy =          -0.0117271300000000
    VV10 Nonlocal Energy =                  0.0000000000000000
    Total Energy =                       -381.4692810998242294
    Molecular point group: c1
  Basis Set: 6-31G*
    Blend: 6-31G*
  Basis Set: (6-31G* AUX)
    Blend: CC-PVDZ-JKFIT

  -Total Gradient:
     Atom            X                  Y                   Z
    ------   -----------------  -----------------  -----------------
       1        0.006971279738     0.000386405177    -0.000152077188
       2       -0.003562923881     0.000106372159     0.000091900938
       3       -0.000007029265     0.000000813359     0.000013674707
       4       -0.000002689859     0.000005681967    -0.000005629023
       5       -0.000002654766     0.000001964802     0.000004735558
       6        0.000010306369    -0.000003417635    -0.000025558894
       7       -0.007081127989    -0.001679477269     0.000158939422
       8        0.000004674344     0.000003263571     0.000005390805
       9       -0.000002077161     0.000002489864    -0.000002242963
      10        0.000002511357     0.000001342517    -0.000000564054
      11       -0.000001249360    -0.000001350727    -0.000003342126
      12        0.000018261738    -0.000003091182    -0.000000994942
      13        0.003538640059     0.001241653779    -0.000056128412
      14        0.000102488842    -0.000051171463     0.000038510193
      15       -0.000034864812     0.000000758298     0.000005085207
      16       -0.000042999784     0.000049794434    -0.000039292903
      17        0.000052783079    -0.000053646893    -0.000042772820
      18        0.000036547818    -0.000007845493    -0.000005721498

  **** Optimization is complete! (in 1 steps) ****
    Final optimized geometry and variables:
    Molecular point group: c1

    Geometry (in Angstrom), charge = 1, multiplicity = 1:

    C            0.034365055807    -0.001525197978    -0.176887580435
    C            0.092574550468     1.214700049467     0.531970960816
    C            0.080285234271     1.210746940528     1.922208446429
    C           -0.004692275737     0.001408932254     2.618886411362
    C           -0.081452836771    -1.208682375800     1.923287305227
    C           -0.070756715123    -1.214266327085     0.532784679063
    C           -0.005707745829    -0.004734215207    -1.642840734796
    H            0.215495595509     2.158697618370     0.009083089325
    H            0.146564139700     2.149218072285     2.462836043837
    H           -0.015379941277     0.002624572564     3.704468572196
    H           -0.167283476450    -2.145466712004     2.464086331827
    H           -0.195357390118    -2.157717055771     0.009273367617
    N           -0.381941962887     1.084021924349    -2.311903386802
    N            0.385797270056    -1.080560542984    -2.323318907296
    H            0.303276452077    -1.148059887669    -3.330523117086
    H            0.863793451586    -1.837650787540    -1.854237127056
    H           -0.862314145009     1.835359374975    -1.835981452086
    H           -0.337266260273     1.141885617247    -3.322191902140

  Dipole Moment: [D]
     X:    -0.0993      Y:    -0.0353      Z:    -5.5756     Total:     5.5766

  Mulliken Charges: (a.u.)
   Center  Symbol    Alpha    Beta     Spin     Total
       1     C     2.94355  2.94355  0.00000  0.11290
       2     C     3.08604  3.08604  0.00000 -0.17209
       3     C     3.06203  3.06203  0.00000 -0.12406
       4     C     3.05129  3.05129  0.00000 -0.10258
       5     C     3.06162  3.06162  0.00000 -0.12324
       6     C     3.08503  3.08503  0.00000 -0.17005
       7     C     2.71247  2.71247  0.00000  0.57506
       8     H     0.41591  0.41591  0.00000  0.16817
       9     H     0.40511  0.40511  0.00000  0.18978
      10     H     0.40315  0.40315  0.00000  0.19370
      11     H     0.40510  0.40510  0.00000  0.18981
      12     H     0.41646  0.41646  0.00000  0.16707
      13     N     3.87020  3.87020  0.00000 -0.74040
      14     N     3.86874  3.86874  0.00000 -0.73749
      15     H     0.30585  0.30585  0.00000  0.38830
      16     H     0.30040  0.30040  0.00000  0.39921
      17     H     0.30113  0.30113  0.00000  0.39774
      18     H     0.30592  0.30592  0.00000  0.38816

   Total alpha = 32.00000, Total beta = 32.00000, Total charge =  1.00000

*** Psi4 exiting successfully. Buy a developer a beer!
