                               Psi4 1.2.1 release

  ==> Input File <==

--------------------------------------------------------------------------
set_num_threads(1)
set_memory('5348 MB')

set { scf_mem_safety_factor 0.7 }

set { reference rks }
set { basis cc-pVDZ }

molecule MOL {
    0 1
    noreorient
    nocom
    symmetry c1
    O    1.050400   0.042900  -0.048100
    C    2.474100   0.047400  -0.029000
    C    3.002600  -1.068900  -0.932000
    N    4.462700  -1.072400  -1.006800
    H    0.760400   0.728400   0.578000
    H    2.809900  -0.097900   1.003200
    H    2.817400   1.026800  -0.378600
    H    2.581000  -0.963300  -1.938400
    H    2.653800  -2.036400  -0.553400
    H    4.762497  -0.479350  -1.780037
    H    4.776978  -2.014328  -1.239719
}

set optking { frozen_dihedral = (" 2 3 4 10 ") }

energy, wfn = energy('B3LYP-D3', return_wfn=True)

import os
os.chdir(os.environ['HTMD_PSI4_WORKDIR'])

oeprop(wfn, 'DIPOLE', 'QUADRUPOLE', 'MULLIKEN_CHARGES')

with open('psi4out.xyz', 'w') as f:
    f.write('11 ' )
    f.write('%.12f\n' % energy)
    f.write(MOL.save_string_xyz())
--------------------------------------------------------------------------

    Molecular point group: c1

    Geometry (in Angstrom), charge = 0, multiplicity = 1:

       Center              X                  Y                   Z               Mass
    ------------   -----------------  -----------------  -----------------  -----------------
         O            1.050400000000     0.042900000000    -0.048100000000    15.994914619560
         C            2.474100000000     0.047400000000    -0.029000000000    12.000000000000
         C            3.002600000000    -1.068900000000    -0.932000000000    12.000000000000
         N            4.462700000000    -1.072400000000    -1.006800000000    14.003074004780
         H            0.760400000000     0.728400000000     0.578000000000     1.007825032070
         H            2.809900000000    -0.097900000000     1.003200000000     1.007825032070
         H            2.817400000000     1.026800000000    -0.378600000000     1.007825032070
         H            2.581000000000    -0.963300000000    -1.938400000000     1.007825032070
         H            2.653800000000    -2.036400000000    -0.553400000000     1.007825032070
         H            4.762497000000    -0.479350000000    -1.780037000000     1.007825032070
         H            4.776978000000    -2.014328000000    -1.239719000000     1.007825032070

  Charge       = 0
  Multiplicity = 1
  Basis Set: CC-PVDZ
    Blend: CC-PVDZ
  Basis Set: (CC-PVDZ AUX)
    Blend: CC-PVDZ-JKFIT

    Orbital Energies [Eh]
    ---------------------

    Doubly Occupied:

       1A    -19.124154     2A    -14.305786     3A    -10.219131
       4A    -10.201755     5A     -1.006577     6A     -0.876905
       7A     -0.710828     8A     -0.593568     9A     -0.503205
      10A     -0.492912    11A     -0.442982    12A     -0.421310
      13A     -0.391877    14A     -0.352538    15A     -0.323314
      16A     -0.257754    17A     -0.233724

  @DF-RKS Final Energy:  -210.39098727825038

   => Energetics <=

    Nuclear Repulsion Energy =            130.2987750563347049
    One-Electron Energy =                -543.5808914327307093
    Two-Electron Energy =                 226.3825812884386437
    DFT Exchange-Correlation Energy =     -23.4866700502930215
    Empirical Dispersion Energy =          -0.0047821400000000
    VV10 Nonlocal Energy =                  0.0000000000000000
    Total Energy =                       -210.3909872782503783

  Dipole Moment: [D]
     X:     0.5427      Y:     0.4108      Z:    -0.3325     Total:     0.7575

  Mulliken Charges: (a.u.)
   Center  Symbol    Alpha    Beta     Spin     Total
       1     O     4.14069  4.14069  0.00000 -0.28138
       2     C     2.92342  2.92342  0.00000  0.15317
       3     C     2.99292  2.99292  0.00000  0.01416
       4     N     3.59043  3.59043  0.00000 -0.18086
       5     H     0.43003  0.43003  0.00000  0.13993
       6     H     0.50019  0.50019  0.00000 -0.00037
       7     H     0.50474  0.50474  0.00000 -0.00947
       8     H     0.49892  0.49892  0.00000  0.00216
       9     H     0.49125  0.49125  0.00000  0.01750
      10     H     0.46426  0.46426  0.00000  0.07149
      11     H     0.46316  0.46316  0.00000  0.07369

   Total alpha = 17.00000, Total beta = 17.00000, Total charge =  0.00000

*** Psi4 exiting successfully. Buy a developer a beer!
