                               Psi4 1.2.1 release

  ==> Input File <==

--------------------------------------------------------------------------
set_num_threads(1)
set_memory('5348 MB')

set { scf_mem_safety_factor 0.7 }

set { reference rks }
set { basis cc-pVDZ }

molecule MOL {
    0 1
    noreorient
    nocom
    symmetry c1
    O    1.050400   0.042900  -0.048100
    C    2.474100   0.047400  -0.029000
    C    3.002600  -1.068900  -0.932000
    N    4.462700  -1.072400  -1.006800
    H    0.762361   0.855685   0.401818
    H    2.809900  -0.097900   1.003200
    H    2.817400   1.026800  -0.378600
    H    2.581000  -0.963300  -1.938400
    H    2.653800  -2.036400  -0.553400
    H    4.779000  -0.221000  -1.470000
    H    4.758600  -1.842500  -1.606500
}

set optking { frozen_dihedral = (" 3 2 1 5 ") }

energy, wfn = energy('B3LYP-D3', return_wfn=True)

import os
os.chdir(os.environ['HTMD_PSI4_WORKDIR'])

oeprop(wfn, 'DIPOLE', 'QUADRUPOLE', 'MULLIKEN_CHARGES')

with open('psi4out.xyz', 'w') as f:
    f.write('11 ' )
    f.write('%.12f\n' % energy)
    f.write(MOL.save_string_xyz())
--------------------------------------------------------------------------

    Molecular point group: c1

    Geometry (in Angstrom), charge = 0, multiplicity = 1:

       Center              X                  Y                   Z               Mass
    ------------   -----------------  -----------------  -----------------  -----------------
         O            1.050400000000     0.042900000000    -0.048100000000    15.994914619560
         C            2.474100000000     0.047400000000    -0.029000000000    12.000000000000
         C            3.002600000000    -1.068900000000    -0.932000000000    12.000000000000
         N            4.462700000000    -1.072400000000    -1.006800000000    14.003074004780
         H            0.762361000000     0.855685000000     0.401818000000     1.007825032070
         H            2.809900000000    -0.097900000000     1.003200000000     1.007825032070
         H            2.817400000000     1.026800000000    -0.378600000000     1.007825032070
         H            2.581000000000    -0.963300000000    -1.938400000000     1.007825032070
         H            2.653800000000    -2.036400000000    -0.553400000000     1.007825032070
         H            4.779000000000    -0.221000000000    -1.470000000000     1.007825032070
         H            4.758600000000    -1.842500000000    -1.606500000000     1.007825032070

  Charge       = 0
  Multiplicity = 1
  Basis Set: CC-PVDZ
    Blend: CC-PVDZ
  Basis Set: (CC-PVDZ AUX)
    Blend: CC-PVDZ-JKFIT

    Orbital Energies [Eh]
    ---------------------

    Doubly Occupied:

       1A    -19.127016     2A    -14.304844     3A    -10.223840
       4A    -10.201664     5A     -1.009443     6A     -0.876708
       7A     -0.712092     8A     -0.597065     9A     -0.506467
      10A     -0.484785    11A     -0.456424    12A     -0.412907
      13A     -0.389152    14A     -0.364964    15A     -0.322551
      16A     -0.260642    17A     -0.231052

  @DF-RKS Final Energy:  -210.39114864875856

   => Energetics <=

    Nuclear Repulsion Energy =            130.4165505344447809
    One-Electron Energy =                -543.7700555008744914
    Two-Electron Energy =                 226.4537578569261598
    DFT Exchange-Correlation Energy =     -23.4864849392550319
    Empirical Dispersion Energy =          -0.0049166000000000
    VV10 Nonlocal Energy =                  0.0000000000000000
    Total Energy =                       -210.3911486487585591

  Dipole Moment: [D]
     X:     0.4624      Y:     1.1737      Z:    -0.6256     Total:     1.4081

  Mulliken Charges: (a.u.)
   Center  Symbol    Alpha    Beta     Spin     Total
       1     O     4.13943  4.13943  0.00000 -0.27886
       2     C     2.92954  2.92954  0.00000  0.14092
       3     C     2.98458  2.98458  0.00000  0.03083
       4     N     3.59341  3.59341  0.00000 -0.18682
       5     H     0.42976  0.42976  0.00000  0.14049
       6     H     0.49758  0.49758  0.00000  0.00484
       7     H     0.50508  0.50508  0.00000 -0.01016
       8     H     0.50165  0.50165  0.00000 -0.00331
       9     H     0.48947  0.48947  0.00000  0.02106
      10     H     0.46612  0.46612  0.00000  0.06776
      11     H     0.46338  0.46338  0.00000  0.07324

   Total alpha = 17.00000, Total beta = 17.00000, Total charge =  0.00000

*** Psi4 exiting successfully. Buy a developer a beer!
