                               Psi4 1.2.1 release

  ==> Input File <==

--------------------------------------------------------------------------
set_num_threads(1)
set_memory('5348 MB')

set { scf_mem_safety_factor 0.7 }

set { reference rks }
set { basis cc-pVDZ }

molecule MOL {
    0 1
    noreorient
    nocom
    symmetry c1
    O    1.141000   0.017000   0.083000
    C    2.558000   0.086000  -0.005000
    C    3.192000  -0.789000   1.067000
    O    3.397438  -0.034231   2.255061
    H    0.789000   0.590000  -0.620000
    H    2.874000   1.128000   0.115000
    H    2.871000  -0.243000  -1.001000
    H    4.153116  -1.181820   0.720756
    H    2.545324  -1.644063   1.294056
    H    3.802115  -0.638220   2.901837
}

set optking { frozen_dihedral = (" 1 2 3 4 ") }

energy, wfn = energy('B3LYP-D3', return_wfn=True)

import os
os.chdir(os.environ['HTMD_PSI4_WORKDIR'])

oeprop(wfn, 'DIPOLE', 'QUADRUPOLE', 'MULLIKEN_CHARGES')

with open('psi4out.xyz', 'w') as f:
    f.write('10 ' )
    f.write('%.12f\n' % energy)
    f.write(MOL.save_string_xyz())
--------------------------------------------------------------------------

    Molecular point group: c1

    Geometry (in Angstrom), charge = 0, multiplicity = 1:

       Center              X                  Y                   Z               Mass
    ------------   -----------------  -----------------  -----------------  -----------------
         O            1.141000000000     0.017000000000     0.083000000000    15.994914619560
         C            2.558000000000     0.086000000000    -0.005000000000    12.000000000000
         C            3.192000000000    -0.789000000000     1.067000000000    12.000000000000
         O            3.397438000000    -0.034231000000     2.255061000000    15.994914619560
         H            0.789000000000     0.590000000000    -0.620000000000     1.007825032070
         H            2.874000000000     1.128000000000     0.115000000000     1.007825032070
         H            2.871000000000    -0.243000000000    -1.001000000000     1.007825032070
         H            4.153116000000    -1.181820000000     0.720756000000     1.007825032070
         H            2.545324000000    -1.644063000000     1.294056000000     1.007825032070
         H            3.802115000000    -0.638220000000     2.901837000000     1.007825032070

  Charge       = 0
  Multiplicity = 1
  Basis Set: CC-PVDZ
    Blend: CC-PVDZ
  Basis Set: (CC-PVDZ AUX)
    Blend: CC-PVDZ-JKFIT

    Orbital Energies [Eh]
    ---------------------

    Doubly Occupied:

       1A    -19.126312     2A    -19.126274     3A    -10.226432
       4A    -10.226245     5A     -1.016609     6A     -1.002125
       7A     -0.733321     8A     -0.603000     9A     -0.513390
      10A     -0.512853    11A     -0.424026    12A     -0.422597
      13A     -0.408629    14A     -0.344140    15A     -0.318569
      16A     -0.266917    17A     -0.254381

  @DF-RKS Final Energy:  -230.25551720117411

   => Energetics <=

    Nuclear Repulsion Energy =            130.8458362264496202
    One-Electron Energy =                -573.5185448594913851
    Two-Electron Energy =                 236.9604209366919463
    DFT Exchange-Correlation Energy =     -24.5389073648242757
    Empirical Dispersion Energy =          -0.0043221400000000
    VV10 Nonlocal Energy =                  0.0000000000000000
    Total Energy =                       -230.2555172011741149

  Dipole Moment: [D]
     X:     1.0478      Y:    -0.5951      Z:    -1.1076     Total:     1.6367

  Mulliken Charges: (a.u.)
   Center  Symbol    Alpha    Beta     Spin     Total
       1     O     4.13797  4.13797  0.00000 -0.27593
       2     C     2.93139  2.93139  0.00000  0.13722
       3     C     2.93156  2.93156  0.00000  0.13689
       4     O     4.13822  4.13822  0.00000 -0.27643
       5     H     0.43100  0.43100  0.00000  0.13799
       6     H     0.49532  0.49532  0.00000  0.00936
       7     H     0.50426  0.50426  0.00000 -0.00851
       8     H     0.50412  0.50412  0.00000 -0.00824
       9     H     0.49522  0.49522  0.00000  0.00956
      10     H     0.43095  0.43095  0.00000  0.13810

   Total alpha = 17.00000, Total beta = 17.00000, Total charge = -0.00000

*** Psi4 exiting successfully. Buy a developer a beer!
